Program Version,EnergyPlus, Version 9.5.0-de239b2e5f, YMD=2022.11.01 22:08
1,5,Environment Title[],Latitude[deg],Longitude[deg],Time Zone[],Elevation[m]
2,8,Day of Simulation[],Month[],Day of Month[],DST Indicator[1=yes 0=no],Hour[],StartMinute[],EndMinute[],DayType
3,5,Cumulative Day of Simulation[],Month[],Day of Month[],DST Indicator[1=yes 0=no],DayType  ! When Daily Report Variables Requested
4,2,Cumulative Days of Simulation[],Month[]  ! When Monthly Report Variables Requested
5,1,Cumulative Days of Simulation[] ! When Run Period Report Variables Requested
6,1,Calendar Year of Simulation[] ! When Annual Report Variables Requested
7,1,Environment,Site Outdoor Air Drybulb Temperature [C] !TimeStep
8,1,ZONE ONE,Zone Windows Total Transmitted Solar Radiation Rate [W] !TimeStep
9,1,ZN001:WALL001,Surface Outside Face Sunlit Fraction [] !TimeStep
10,1,ZN001:WALL001,Surface Outside Face Incident Solar Radiation Rate per Area [W/m2] !TimeStep
11,1,ZN001:WALL001:WIN001,Surface Outside Face Sunlit Fraction [] !TimeStep
12,1,ZN001:WALL001:WIN001,Surface Outside Face Incident Solar Radiation Rate per Area [W/m2] !TimeStep
13,1,ZN001:WALL001:WIN001,Surface Window Transmitted Solar Radiation Rate [W] !TimeStep
14,1,ZN001:WALL001,Surface Inside Face Temperature [C] !TimeStep
15,1,ZN001:WALL001,Surface Outside Face Temperature [C] !TimeStep
16,1,ZN001:WALL001:WIN001,Surface Inside Face Temperature [C] !TimeStep
17,1,ZN001:WALL001:WIN001,Surface Outside Face Temperature [C] !TimeStep
18,1,ZONE ONE,Zone Mean Air Temperature [C] !TimeStep
End of Data Dictionary
1,RUN PERIOD 1,  41.98, -87.92,  -6.00, 201.00
2,1, 1, 1, 0, 1, 0.00,15.00,Tuesday
7,-4.324999999999999
8,0.0
9,0.0
10,0.0
11,0.0
12,0.0
13,0.0
14,4.589672568597583
15,-5.920311229982565
16,2.4946519222672238
17,-4.606218686261286
18,5.016301504548618
2,1, 1, 1, 0, 1,15.00,30.00,Tuesday
7,-6.949999999999999
8,0.0
9,0.0
10,0.0
11,0.0
12,0.0
13,0.0
14,4.409714599699853
15,-8.387968426096144
16,1.8862703814501174
17,-6.693847331328129
18,4.922438003679037
2,1, 1, 1, 0, 1,30.00,45.00,Tuesday
7,-9.575
8,0.0
9,0.0
10,0.0
11,0.0
12,0.0
13,0.0
14,4.209955676206188
15,-10.863646192379989
16,1.2727422929031037
17,-8.788007172967184
18,4.796409498350662
2,1, 1, 1, 0, 1,45.00,60.00,Tuesday
7,-12.2
8,0.0
9,0.0
10,0.0
11,0.0
12,0.0
13,0.0
14,3.994345578581692
15,-13.345930314577468
16,0.6448198127542355
17,-10.889983928843663
18,4.647817666802648
2,1, 1, 1, 0, 2, 0.00,15.00,Tuesday
7,-12.075
8,0.0
9,0.0
10,0.0
11,0.0
12,0.0
13,0.0
14,3.9298271037319947
15,-13.147114498759575
16,0.5781491125987941
17,-10.735236824691129
18,4.513738228055953
2,1, 1, 1, 0, 2,15.00,30.00,Tuesday
7,-11.95
8,0.0
9,0.0
10,0.0
11,0.0
12,0.0
13,0.0
14,3.8514010904690516
15,-12.969972322173632
16,0.5478589666770972
17,-10.589507774418394
18,4.411457958681762
2,1, 1, 1, 0, 2,30.00,45.00,Tuesday
7,-11.825
8,0.0
9,0.0
10,0.0
11,0.0
12,0.0
13,0.0
14,3.790087986683419
15,-12.791657926999895
16,0.523005332073808
17,-10.443390608999949
18,4.335901876683228
2,1, 1, 1, 0, 2,45.00,60.00,Tuesday
7,-11.7
8,0.0
9,0.0
10,0.0
11,0.0
12,0.0
13,0.0
14,3.7400308188838506
15,-12.613416917328293
16,0.5108234206484781
17,-10.294621512063714
18,4.276183412692931
2,1, 1, 1, 0, 3, 0.00,15.00,Tuesday
7,-11.549999999999999
8,0.0
9,0.0
10,0.0
11,0.0
12,0.0
13,0.0
14,3.691689878783639
15,-12.487721301526812
16,0.5083418793171859
17,-10.160025290521276
18,4.223381773269097
2,1, 1, 1, 0, 3,15.00,30.00,Tuesday
7,-11.399999999999999
8,0.0
9,0.0
10,0.0
11,0.0
12,0.0
13,0.0
14,3.6465542914058255
15,-12.363409342639136
16,0.5009778832219354
17,-10.006691708538824
18,4.172916341564692
2,1, 1, 1, 0, 3,30.00,45.00,Tuesday
7,-11.25
8,0.0
9,0.0
10,0.0
11,0.0
12,0.0
13,0.0
14,3.602414541793793
15,-12.240644842019997
16,0.5021414306872885
17,-9.871177572329544
18,4.1235065472135219
2,1, 1, 1, 0, 3,45.00,60.00,Tuesday
7,-11.1
8,0.0
9,0.0
10,0.0
11,0.0
12,0.0
13,0.0
14,3.5587527335842568
15,-12.119479673484682
16,0.5010756808964061
17,-9.727476036962742
18,4.074958063044959
2,1, 1, 1, 0, 4, 0.00,15.00,Tuesday
7,-11.1
8,0.0
9,0.0
10,0.0
11,0.0
12,0.0
13,0.0
14,3.5113979395076897
15,-12.090508757677567
16,0.4489030020516793
17,-9.751415863490934
18,4.0263483489983689
2,1, 1, 1, 0, 4,15.00,30.00,Tuesday
7,-11.1
8,0.0
9,0.0
10,0.0
11,0.0
12,0.0
13,0.0
14,3.4644522012343725
15,-12.062658164484495
16,0.40256625969334439
17,-9.78238988016335
18,3.9773315750948137
2,1, 1, 1, 0, 4,30.00,45.00,Tuesday
7,-11.1
8,0.0
9,0.0
10,0.0
11,0.0
12,0.0
13,0.0
14,3.4173297796361226
15,-12.036366658028122
16,0.35698717966022289
17,-9.813148451291568
18,3.9280283747609707
2,1, 1, 1, 0, 4,45.00,60.00,Tuesday
7,-11.1
8,0.0
9,0.0
10,0.0
11,0.0
12,0.0
13,0.0
14,3.3701355286964045
15,-12.011502410430122
16,0.3116195653495879
17,-9.843040945367818
18,3.878648400931623
2,1, 1, 1, 0, 5, 0.00,15.00,Tuesday
7,-10.975
8,0.0
9,0.0
10,0.0
11,0.0
12,0.0
13,0.0
14,3.328589389880997
15,-11.889460683476822
16,0.3022992222936409
17,-9.756036720911482
18,3.8303659812819115
2,1, 1, 1, 0, 5,15.00,30.00,Tuesday
7,-10.85
8,0.0
9,0.0
10,0.0
11,0.0
12,0.0
13,0.0
14,3.2872504130271547
15,-11.767497088817159
16,0.29095851306703937
17,-9.661078891165119
18,3.7836598871853686
2,1, 1, 1, 0, 5,30.00,45.00,Tuesday
7,-10.725
8,0.0
9,0.0
10,0.0
11,0.0
12,0.0
13,0.0
14,3.246915763443811
15,-11.64551160047284
16,0.2798909851641156
17,-9.56527858443826
18,3.7383124207929625
2,1, 1, 1, 0, 5,45.00,60.00,Tuesday
7,-10.6
8,0.0
9,0.0
10,0.0
11,0.0
12,0.0
13,0.0
14,3.207421547611334
15,-11.523535758097193
16,0.2696069131719696
17,-9.469245597259146
18,3.6939542657426318
2,1, 1, 1, 0, 6, 0.00,15.00,Tuesday
7,-10.6
8,0.0
9,0.0
10,0.0
11,0.0
12,0.0
13,0.0
14,3.1608338478052526
15,-11.52445922597855
16,0.23012001980714559
17,-9.469744918088282
18,3.6489937683952915
2,1, 1, 1, 0, 6,15.00,30.00,Tuesday
7,-10.6
8,0.0
9,0.0
10,0.0
11,0.0
12,0.0
13,0.0
14,3.1148737527407688
15,-11.525319025405054
16,0.19162747407449388
17,-9.477012499627108
18,3.60271250084322
2,1, 1, 1, 0, 6,30.00,45.00,Tuesday
7,-10.6
8,0.0
9,0.0
10,0.0
11,0.0
12,0.0
13,0.0
14,3.068375236706471
15,-11.526221121813834
16,0.1533180724304657
17,-9.484882897820512
18,3.555376899007558
2,1, 1, 1, 0, 6,45.00,60.00,Tuesday
7,-10.6
8,0.0
9,0.0
10,0.0
11,0.0
12,0.0
13,0.0
14,3.0215529977240287
15,-11.527121686145174
16,0.11464066891744551
17,-9.492904623286677
18,3.5074954016253998
2,1, 1, 1, 0, 7, 0.00,15.00,Tuesday
7,-10.6
8,0.0
9,0.0
10,0.0
11,0.0
12,0.0
13,0.0
14,2.9767711133135306
15,-11.503199533090811
16,0.07044164618434934
17,-9.518045242953236
18,3.45975181235069
2,1, 1, 1, 0, 7,15.00,30.00,Tuesday
7,-10.6
8,0.0
9,0.0
10,0.0
11,0.0
12,0.0
13,0.0
14,2.931853436306011
15,-11.480517620240239
16,0.027991776154522087
17,-9.543287512599534
18,3.412502258544332
2,1, 1, 1, 0, 7,30.00,45.00,Tuesday
7,-10.6
8,0.0
9,0.0
10,0.0
11,0.0
12,0.0
13,0.0
14,2.88721914513195
15,-11.45898807524644
16,-0.014060295551530544
17,-9.567843681721002
18,3.3657311379014849
2,1, 1, 1, 0, 7,45.00,60.00,Tuesday
7,-10.6
8,0.0
9,0.0
10,0.0
11,0.0
12,0.0
13,0.0
14,2.8428781811396326
15,-11.438542723317733
16,-0.05564908420842585
17,-9.591590481721596
18,3.319322933214675
2,1, 1, 1, 0, 8, 0.00,15.00,Tuesday
7,-10.45
8,0.0
9,0.0
10,0.0
11,0.0
12,0.0
13,0.0
14,2.797856295028444
15,-11.389792233246457
16,-0.0743597826773339
17,-9.542744522687372
18,3.2729190737790945
2,1, 1, 1, 0, 8,15.00,30.00,Tuesday
7,-10.3
8,132.99768889139308
9,1.0
10,22.819555959623899
11,1.0
12,22.819555959623899
13,132.99768889139308
14,2.8688623367481687
15,-9.716423676726038
16,0.2585484332504393
17,-9.19358198931593
18,3.243700770488953
2,1, 1, 1, 0, 8,30.00,45.00,Tuesday
7,-10.15
8,653.2512827685355
9,1.0
10,109.75755355442667
11,1.0
12,109.75755355442667
13,653.2512827685355
14,3.255936126476757
15,-3.349385255955962
16,1.6552377312326599
17,-7.986090676255628
18,3.279305968796218
2,1, 1, 1, 0, 8,45.00,60.00,Tuesday
7,-10.0
8,1188.6444404255329
9,1.0
10,195.8764694434918
11,1.0
12,195.8764694434918
13,1188.6444404255329
14,3.754030100802853
15,3.142006551664545
16,3.207029530630564
17,-6.770224417266149
18,3.3859964220947318
2,1, 1, 1, 0, 9, 0.00,15.00,Tuesday
7,-9.725
8,1722.9922176505427
9,1.0
10,278.97248314719988
11,1.0
12,278.97248314719988
13,1722.9922176505427
14,4.144305780319578
15,8.313060370262269
16,4.730809846060424
17,-5.6909823707476339
18,3.5440293331964218
2,1, 1, 1, 0, 9,15.00,30.00,Tuesday
7,-9.45
8,2287.1257578017227
9,1.0
10,364.91995730569456
11,1.0
12,364.91995730569456
13,2287.1257578017227
14,4.565016080878553
15,13.392897185431462
16,6.20443995993503
17,-4.625336827502338
18,3.745332404456728
2,1, 1, 1, 0, 9,30.00,45.00,Tuesday
7,-9.175
8,2661.559110101556
9,1.0
10,420.35879993239237
11,1.0
12,420.35879993239237
13,2661.559110101556
14,4.8588831877257629
15,16.150853586839987
16,7.188625608318944
17,-3.9671608189288465
18,3.970297812450773
2,1, 1, 1, 0, 9,45.00,60.00,Tuesday
7,-8.9
8,3050.7013099639259
9,1.0
10,478.00138373643099
11,1.0
12,478.00138373643099
13,3050.7013099639259
14,5.204262262404193
15,19.14582956027202
16,8.169810313610128
17,-3.2859806183393518
18,4.208670041298659
2,1, 1, 1, 0,10, 0.00,15.00,Tuesday
7,-8.350000000000002
8,3448.519011742048
9,1.0
10,536.9185644770597
11,1.0
12,536.9185644770597
13,3448.519011742048
14,5.494472947776525
15,20.263447757488089
16,9.178032126379549
17,-2.57414832658651
18,4.4607117106280349
2,1, 1, 1, 0,10,15.00,30.00,Tuesday
7,-7.800000000000001
8,3860.445392491098
9,1.0
10,598.0969199229219
11,1.0
12,598.0969199229219
13,3860.445392491098
14,5.812132108352572
15,21.51647260547842
16,10.202596018897282
17,-1.8654744881044963
18,4.736132672726934
2,1, 1, 1, 0,10,30.00,45.00,Tuesday
7,-7.25
8,4131.77964758416
9,1.0
10,637.6133352894237
11,1.0
12,637.6133352894237
13,4131.77964758416
14,6.0575158497531629
15,21.576277665686356
16,10.936147733407666
17,-1.373653297945964
18,5.0209569986422519
2,1, 1, 1, 0,10,45.00,60.00,Tuesday
7,-6.7
8,4399.2840932720559
9,1.0
10,676.6412284283772
11,1.0
12,676.6412284283772
13,4399.2840932720559
14,6.325595018539694
15,21.736527831890798
16,11.643689672476626
17,-0.8853063560580949
18,5.303521645151901
2,1, 1, 1, 0,11, 0.00,15.00,Tuesday
7,-6.275
8,4662.017661189362
9,1.0
10,715.0112779846514
11,1.0
12,715.0112779846514
13,4662.017661189362
14,6.670158356847026
15,23.834345842198599
16,12.392429607692407
17,-0.16398159220108256
18,5.585894860825054
2,1, 1, 1, 0,11,15.00,30.00,Tuesday
7,-5.85
8,4918.589823307049
9,1.0
10,752.5077794605232
11,1.0
12,752.5077794605232
13,4918.589823307049
14,7.003562822009872
15,25.769549690917488
16,13.133065758186149
17,0.5369521420018373
18,5.872289909901845
2,1, 1, 1, 0,11,30.00,45.00,Tuesday
7,-5.425
8,4844.124925956385
9,1.0
10,742.5988714321785
11,1.0
12,742.5988714321785
13,4844.124925956385
14,7.201341532147895
15,25.62149890658001
16,13.276248700890165
17,0.8244259936262779
18,6.145110596640829
2,1, 1, 1, 0,11,45.00,60.00,Tuesday
7,-5.0
8,4736.768652836221
9,1.0
10,727.8169025450712
11,1.0
12,727.8169025450712
13,4736.768652836221
14,7.394480433536026
15,25.392508415092168
16,13.331599703035409
17,1.0794773656605799
18,6.391321583426803
2,1, 1, 1, 0,12, 0.00,15.00,Tuesday
7,-4.575
8,4551.459979267811
9,1.0
10,700.3759009170325
11,1.0
12,700.3759009170325
13,4551.459979267811
14,7.529574560795115
15,24.650069631710008
16,13.229491651346052
17,1.2719964708709313
18,6.603628688054767
2,1, 1, 1, 0,12,15.00,30.00,Tuesday
7,-4.15
8,4413.379659515859
9,1.0
10,681.6705029034473
11,1.0
12,681.6705029034473
13,4413.379659515859
14,7.686883383275216
15,24.319797189985075
16,13.215601929406262
17,1.5362769591441748
18,6.789773108112782
2,1, 1, 1, 0,12,30.00,45.00,Tuesday
7,-3.7249999999999998
8,3873.658642990038
9,1.0
10,602.01865277251
11,1.0
12,602.01865277251
13,3873.658642990038
14,7.607797464953094
15,21.29152966303068
16,12.427984434856683
17,1.2991669438496274
18,6.928211209908952
2,1, 1, 1, 0,12,45.00,60.00,Tuesday
7,-3.3
8,3163.0768658612189
9,1.0
10,493.55004396206007
11,1.0
12,493.55004396206007
13,3163.0768658612189
14,7.417481749378292
15,17.113214860064966
16,11.17178246800006
17,0.799250917712186
18,6.994729906836702
2,1, 1, 1, 0,13, 0.00,15.00,Tuesday
7,-3.0249999999999996
8,2610.0617694365585
9,1.0
10,412.335026418112
11,1.0
12,412.335026418112
13,2610.0617694365585
14,7.284378577850473
15,14.269072520666415
16,10.177492692539545
17,0.45949731727131395
18,7.003656552458185
2,1, 1, 1, 0,13,15.00,30.00,Tuesday
7,-2.75
8,1910.2139029152868
9,1.0
10,305.94037763660148
11,1.0
12,305.94037763660148
13,1910.2139029152868
14,6.988789023484357
15,10.095933223125665
16,8.797341200851179
17,-0.11874840895535499
18,6.96397327253803
2,1, 1, 1, 0,13,30.00,45.00,Tuesday
7,-2.475
8,1743.2254450509902
9,1.0
10,281.0763483922329
11,1.0
12,281.0763483922329
13,1743.2254450509902
14,6.963921262766476
15,9.582882662613935
16,8.471347415955393
17,-0.010524437623757877
18,6.911503917163305
2,1, 1, 1, 0,13,45.00,60.00,Tuesday
7,-2.2
8,1579.718600882295
9,1.0
10,256.7721209415886
11,1.0
12,256.7721209415886
13,1579.718600882295
14,6.931128843550066
15,8.976566103871136
16,8.214892349715
17,0.12215481673263185
18,6.866546128891791
2,1, 1, 1, 0,14, 0.00,15.00,Tuesday
7,-1.9250000000000003
8,1290.005728406099
9,1.0
10,210.73276284570657
11,1.0
12,210.73276284570657
13,1290.005728406099
14,6.800102038176987
15,7.428830979753123
16,7.620987892638482
17,0.024240181538630169
18,6.825771408933918
2,1, 1, 1, 0,14,15.00,30.00,Tuesday
7,-1.6500000000000002
8,1145.1893539085036
9,1.0
10,189.38488290342594
11,1.0
12,189.38488290342594
13,1145.1893539085036
14,6.768152633740974
15,7.023873383536922
16,7.3494689514150199
17,0.13408866673546528
18,6.789687298343622
2,1, 1, 1, 0,14,30.00,45.00,Tuesday
7,-1.375
8,1092.3100081392723
9,1.0
10,179.3940297802914
11,1.0
12,179.3940297802914
13,1092.3100081392723
14,6.763649394121981
15,7.146564696049638
16,7.2838607781522459
17,0.3601216842531585
18,6.760015660331854
2,1, 1, 1, 0,14,45.00,60.00,Tuesday
7,-1.1
8,1038.7201351049508
9,1.0
10,169.43349014176136
11,1.0
12,169.43349014176136
13,1038.7201351049508
14,6.756562160588374
15,7.2452863765990609
16,7.213362538147749
17,0.5844447890761444
18,6.736504760958948
2,1, 1, 1, 0,15, 0.00,15.00,Tuesday
7,-1.1
8,1093.060052069741
9,1.0
10,178.15692317953907
11,1.0
12,178.15692317953907
13,1093.060052069741
14,6.815020704912013
15,8.06303987824764
16,7.357782252697916
17,0.7236038416421025
18,6.722159078060036
2,1, 1, 1, 0,15,15.00,30.00,Tuesday
7,-1.1
8,1026.7196534317869
9,1.0
10,166.40516310952945
11,1.0
12,166.40516310952945
13,1026.7196534317869
14,6.768171918301081
15,7.699391376870467
16,7.200041260609282
17,0.658490037961883
18,6.71161297018678
2,1, 1, 1, 0,15,30.00,45.00,Tuesday
7,-1.1
8,865.3316390613818
9,1.0
10,140.8967369711617
11,1.0
12,140.8967369711617
13,865.3316390613818
14,6.657145875331136
15,6.492359252231921
16,6.772799450045682
17,0.4164982112408211
18,6.694098762548052
2,1, 1, 1, 0,15,45.00,60.00,Tuesday
7,-1.1
8,711.7843414395675
9,1.0
10,116.57355796743004
11,1.0
12,116.57355796743004
13,711.7843414395675
14,6.545883000926108
15,5.283157214090734
16,6.335197944200331
17,0.1570296179294246
18,6.6607361028629159
2,1, 1, 1, 0,16, 0.00,15.00,Tuesday
7,-1.1
8,564.6747975504752
9,1.0
10,93.14939272689483
11,1.0
12,93.14939272689483
13,564.6747975504752
14,6.4493588706496969
15,4.232285076434812
16,5.952542461991413
17,-0.01244511333175069
18,6.609981446557118
2,1, 1, 1, 0,16,15.00,30.00,Tuesday
7,-1.1
8,350.387254077652
9,1.0
10,57.94047897402063
11,1.0
12,57.94047897402063
13,350.387254077652
14,6.265720589977795
15,2.1067450866532426
16,5.378533129799962
17,-0.35003775823355456
18,6.53519228368134
2,1, 1, 1, 0,16,30.00,45.00,Tuesday
7,-1.1
8,271.5574799940899
9,1.0
10,45.38251793443488
11,1.0
12,45.38251793443488
13,271.5574799940899
14,6.194545940097736
15,1.4947033401104089
16,5.1389929913447649
17,-0.4273871152823858
18,6.446127382245401
2,1, 1, 1, 0,16,45.00,60.00,Tuesday
7,-1.1
8,189.50503850097145
9,1.0
10,32.02625108222755
11,1.0
12,32.02625108222755
13,189.50503850097145
14,6.086666010442744
15,0.6296330992590233
16,4.90734458595449
17,-0.5125545256847204
18,6.354750687439927
2,1, 1, 1, 0,17, 0.00,15.00,Tuesday
7,-1.1
8,103.92472412522229
9,1.0
10,17.762198626050539
11,1.0
12,17.762198626050539
13,103.92472412522229
14,5.950497253246137
15,-0.624094633104935
16,4.618223814867235
17,-0.7158486203816779
18,6.262591053971253
2,1, 1, 1, 0,17,15.00,30.00,Tuesday
7,-1.1
8,0.0
9,0.0
10,0.0
11,0.0
12,0.0
13,0.0
14,5.766312287946144
15,-2.462367735041706
16,4.25393768695767
17,-1.0208991313388652
18,6.159680684643492
2,1, 1, 1, 0,17,30.00,45.00,Tuesday
7,-1.1
8,0.0
9,0.0
10,0.0
11,0.0
12,0.0
13,0.0
14,5.71202148748041
15,-2.5993040717132924
16,4.16445551711729
17,-1.040412115264587
18,6.059981129178191
2,1, 1, 1, 0,17,45.00,60.00,Tuesday
7,-1.1
8,0.0
9,0.0
10,0.0
11,0.0
12,0.0
13,0.0
14,5.642999092874454
15,-2.7921544741323767
16,4.115019861416556
17,-1.0455947392856616
18,5.976325657055125
2,1, 1, 1, 0,18, 0.00,15.00,Tuesday
7,-1.25
8,0.0
9,0.0
10,0.0
11,0.0
12,0.0
13,0.0
14,5.585520278777811
15,-2.9397432279101878
16,4.027219669424994
17,-1.1828469279382717
18,5.9095772828881
2,1, 1, 1, 0,18,15.00,30.00,Tuesday
7,-1.4
8,0.0
9,0.0
10,0.0
11,0.0
12,0.0
13,0.0
14,5.533251348430971
15,-3.092142712829414
16,3.954243010989387
17,-1.3120723850043988
18,5.85480781247631
2,1, 1, 1, 0,18,30.00,45.00,Tuesday
7,-1.5499999999999999
8,0.0
9,0.0
10,0.0
11,0.0
12,0.0
13,0.0
14,5.485237436070934
15,-3.244044810237702
16,3.8855961327950014
17,-1.4403531354309394
18,5.806803213103625
2,1, 1, 1, 0,18,45.00,60.00,Tuesday
7,-1.7
8,0.0
9,0.0
10,0.0
11,0.0
12,0.0
13,0.0
14,5.439334474428863
15,-3.3961159561338167
16,3.819861031735684
17,-1.567939938923871
18,5.762173762687441
2,1, 1, 1, 0,19, 0.00,15.00,Tuesday
7,-1.825
8,0.0
9,0.0
10,0.0
11,0.0
12,0.0
13,0.0
14,5.419008338038847
15,-3.2459403153323689
16,3.7577455924689504
17,-1.6840260352230417
18,5.722754572539043
2,1, 1, 1, 0,19,15.00,30.00,Tuesday
7,-1.9500000000000002
8,0.0
9,0.0
10,0.0
11,0.0
12,0.0
13,0.0
14,5.397741169601796
15,-3.1774395931070269
16,3.7050076588575395
17,-1.7995902017763684
18,5.6902794424211768
2,1, 1, 1, 0,19,30.00,45.00,Tuesday
7,-2.075
8,0.0
9,0.0
10,0.0
11,0.0
12,0.0
13,0.0
14,5.371791885507602
15,-3.250763925816851
16,3.659501457230988
17,-1.9063812958708014
18,5.663233939979502
2,1, 1, 1, 0,19,45.00,60.00,Tuesday
7,-2.2
8,0.0
9,0.0
10,0.0
11,0.0
12,0.0
13,0.0
14,5.348879789496074
15,-3.2270393626042734
16,3.6106823097596818
17,-2.0227471145622077
18,5.63857653175361
2,1, 1, 1, 0,20, 0.00,15.00,Tuesday
7,-1.9250000000000003
8,0.0
9,0.0
10,0.0
11,0.0
12,0.0
13,0.0
14,5.342701653700875
15,-2.925491787094189
16,3.654953698143572
17,-1.8128654777987095
18,5.616725595959966
2,1, 1, 1, 0,20,15.00,30.00,Tuesday
7,-1.6500000000000002
8,0.0
9,0.0
10,0.0
11,0.0
12,0.0
13,0.0
14,5.33618154385319
15,-2.627005947985348
16,3.6994534184474334
17,-1.5901745262497116
18,5.598119379225167
2,1, 1, 1, 0,20,30.00,45.00,Tuesday
7,-1.375
8,0.0
9,0.0
10,0.0
11,0.0
12,0.0
13,0.0
14,5.331401833949712
15,-2.329783339659594
16,3.745453886503924
17,-1.3648660264283308
18,5.582325405391371
2,1, 1, 1, 0,20,45.00,60.00,Tuesday
7,-1.1
8,0.0
9,0.0
10,0.0
11,0.0
12,0.0
13,0.0
14,5.328158150094181
15,-2.0338435156293226
16,3.7934807161607866
17,-1.1373452228350516
18,5.56865018308334
2,1, 1, 1, 0,21, 0.00,15.00,Tuesday
7,-1.25
8,0.0
9,0.0
10,0.0
11,0.0
12,0.0
13,0.0
14,5.282353823481462
15,-2.316472410896536
16,3.7489442590771775
17,-1.2398661439216313
18,5.550350728364105
2,1, 1, 1, 0,21,15.00,30.00,Tuesday
7,-1.4
8,0.0
9,0.0
10,0.0
11,0.0
12,0.0
13,0.0
14,5.237953917478743
15,-2.5338133881565998
16,3.6945430765604216
17,-1.3524347577730965
18,5.522760051883986
2,1, 1, 1, 0,21,30.00,45.00,Tuesday
7,-1.5499999999999999
8,0.0
9,0.0
10,0.0
11,0.0
12,0.0
13,0.0
14,5.179935177171101
15,-2.8801322256408787
16,3.6397929572697196
17,-1.4579252118725777
18,5.484930595673535
2,1, 1, 1, 0,21,45.00,60.00,Tuesday
7,-1.7
8,0.0
9,0.0
10,0.0
11,0.0
12,0.0
13,0.0
14,5.116573312117963
15,-3.3343263977126447
16,3.5804628244870857
17,-1.5516609048972896
18,5.439014099552712
2,1, 1, 1, 0,22, 0.00,15.00,Tuesday
7,-1.5499999999999999
8,0.0
9,0.0
10,0.0
11,0.0
12,0.0
13,0.0
14,5.122780460507914
15,-2.8440998758396609
16,3.5668250927802775
17,-1.4753131509060609
18,5.39865156582182
2,1, 1, 1, 0,22,15.00,30.00,Tuesday
7,-1.4
8,0.0
9,0.0
10,0.0
11,0.0
12,0.0
13,0.0
14,5.119233497954779
15,-2.5121482863279906
16,3.5822814859520806
17,-1.3744079538801089
18,5.37129286834227
2,1, 1, 1, 0,22,30.00,45.00,Tuesday
7,-1.25
8,0.0
9,0.0
10,0.0
11,0.0
12,0.0
13,0.0
14,5.114305012659443
15,-2.2912388368196425
16,3.6017646959098785
17,-1.263061216773167
18,5.35475245932989
2,1, 1, 1, 0,22,45.00,60.00,Tuesday
7,-1.1
8,0.0
9,0.0
10,0.0
11,0.0
12,0.0
13,0.0
14,5.113380908398005
15,-2.0072560943169157
16,3.6245224424901609
17,-1.1466492938894817
18,5.3438248895525579
2,1, 1, 1, 0,23, 0.00,15.00,Tuesday
7,-1.25
8,0.0
9,0.0
10,0.0
11,0.0
12,0.0
13,0.0
14,5.067227376033886
15,-2.3106785421193036
16,3.535173848678255
17,-1.4201532279819276
18,5.328009431438438
2,1, 1, 1, 0,23,15.00,30.00,Tuesday
7,-1.4
8,0.0
9,0.0
10,0.0
11,0.0
12,0.0
13,0.0
14,5.023864635481783
15,-2.615258985483273
16,3.4337001225642895
17,-1.714263648082067
18,5.3020419063016679
2,1, 1, 1, 0,23,30.00,45.00,Tuesday
7,-1.5499999999999999
8,0.0
9,0.0
10,0.0
11,0.0
12,0.0
13,0.0
14,4.975964391800245
15,-2.9204986108566177
16,3.3316071516802596
17,-2.0062503134596456
18,5.26694563985003
2,1, 1, 1, 0,23,45.00,60.00,Tuesday
7,-1.7
8,0.0
9,0.0
10,0.0
11,0.0
12,0.0
13,0.0
14,4.924190349716386
15,-3.226080796906043
16,3.225817205657677
17,-2.2988597571390416
18,5.225657782627805
2,1, 1, 1, 0,24, 0.00,15.00,Tuesday
7,-1.7
8,0.0
9,0.0
10,0.0
11,0.0
12,0.0
13,0.0
14,4.8897067186807379
15,-3.280060967661968
16,3.178789570604124
17,-2.3610138219953
18,5.183840637421946
2,1, 1, 1, 0,24,15.00,30.00,Tuesday
7,-1.7
8,0.0
9,0.0
10,0.0
11,0.0
12,0.0
13,0.0
14,4.851111219291932
15,-3.3347258885260286
16,3.1360007886826226
17,-2.421602261350131
18,5.144365487615903
2,1, 1, 1, 0,24,30.00,45.00,Tuesday
7,-1.7
8,0.0
9,0.0
10,0.0
11,0.0
12,0.0
13,0.0
14,4.815569141614322
15,-3.3892041254360585
16,3.092423792457282
17,-2.4823660826832567
18,5.107367987890566
2,1, 1, 1, 0,24,45.00,60.00,Tuesday
7,-1.7
8,0.0
9,0.0
10,0.0
11,0.0
12,0.0
13,0.0
14,4.778682247679671
15,-3.4437693762754324
16,3.05029837724544
17,-2.5427011041543325
18,5.071783446821643
End of Data
 Number of Records Written=        1152
