Program Version,EnergyPlus, Version 9.5.0-de239b2e5f, YMD=2022.11.01 22:08
1,5,Environment Title[],Latitude[deg],Longitude[deg],Time Zone[],Elevation[m]
2,8,Day of Simulation[],Month[],Day of Month[],DST Indicator[1=yes 0=no],Hour[],StartMinute[],EndMinute[],DayType
3,5,Cumulative Day of Simulation[],Month[],Day of Month[],DST Indicator[1=yes 0=no],DayType  ! When Daily Report Variables Requested
4,2,Cumulative Days of Simulation[],Month[]  ! When Monthly Report Variables Requested
5,1,Cumulative Days of Simulation[] ! When Run Period Report Variables Requested
6,1,Calendar Year of Simulation[] ! When Annual Report Variables Requested
7,1,Environment,Site Outdoor Air Drybulb Temperature [C] !TimeStep
8,1,ZONE ONE,Zone Windows Total Transmitted Solar Radiation Rate [W] !TimeStep
9,1,ZN001:WALL001,Surface Outside Face Sunlit Fraction [] !TimeStep
10,1,ZN001:WALL001,Surface Outside Face Incident Solar Radiation Rate per Area [W/m2] !TimeStep
11,1,ZN001:WALL001:WIN001,Surface Outside Face Sunlit Fraction [] !TimeStep
12,1,ZN001:WALL001:WIN001,Surface Outside Face Incident Solar Radiation Rate per Area [W/m2] !TimeStep
13,1,ZN001:WALL001:WIN001,Surface Window Transmitted Solar Radiation Rate [W] !TimeStep
14,1,ZN001:WALL001,Surface Inside Face Temperature [C] !TimeStep
15,1,ZN001:WALL001,Surface Outside Face Temperature [C] !TimeStep
16,1,ZN001:WALL001:WIN001,Surface Inside Face Temperature [C] !TimeStep
17,1,ZN001:WALL001:WIN001,Surface Outside Face Temperature [C] !TimeStep
18,1,ZONE ONE,Zone Mean Air Temperature [C] !TimeStep
End of Data Dictionary
1,RUN PERIOD 1,  41.98, -87.92,  -6.00, 201.00
2,1, 1, 1, 0, 1, 0.00,15.00,Tuesday
7,-4.324999999999999
8,0.0
9,0.0
10,0.0
11,0.0
12,0.0
13,0.0
14,0.7384061071163046
15,-5.990642964750341
16,-0.6599363307462909
17,-5.259542417728596
18,1.0639775566904118
2,1, 1, 1, 0, 1,15.00,30.00,Tuesday
7,-6.949999999999999
8,0.0
9,0.0
10,0.0
11,0.0
12,0.0
13,0.0
14,0.5656496267708117
15,-8.458602983112537
16,-1.2815009376156468
17,-7.347245183955124
18,0.982814116080327
2,1, 1, 1, 0, 1,30.00,45.00,Tuesday
7,-9.575
8,0.0
9,0.0
10,0.0
11,0.0
12,0.0
13,0.0
14,0.3719909142641558
15,-10.935150853348084
16,-1.903514874952748
17,-9.441608860415954
18,0.8682816951119854
2,1, 1, 1, 0, 1,45.00,60.00,Tuesday
7,-12.2
8,0.0
9,0.0
10,0.0
11,0.0
12,0.0
13,0.0
14,0.1618363168363288
15,-13.418182468131498
16,-2.5388859417840878
17,-11.544404997048332
18,0.7293746312432267
2,1, 1, 1, 0, 2, 0.00,15.00,Tuesday
7,-12.075
8,0.0
9,0.0
10,0.0
11,0.0
12,0.0
13,0.0
14,0.11045283425767251
15,-13.219916444636109
16,-2.5986459924154134
17,-11.400043067024058
18,0.6033964508812716
2,1, 1, 1, 0, 2,15.00,30.00,Tuesday
7,-11.95
8,0.0
9,0.0
10,0.0
11,0.0
12,0.0
13,0.0
14,0.042865109222970727
15,-13.04258868533247
16,-2.6173685664560937
17,-11.251318822724784
18,0.5087280602591564
2,1, 1, 1, 0, 2,30.00,45.00,Tuesday
7,-11.825
8,0.0
9,0.0
10,0.0
11,0.0
12,0.0
13,0.0
14,-0.007762463569753486
15,-12.864007385430718
16,-2.6316728401629918
17,-11.102269612521355
18,0.4413830451324901
2,1, 1, 1, 0, 2,45.00,60.00,Tuesday
7,-11.7
8,0.0
9,0.0
10,0.0
11,0.0
12,0.0
13,0.0
14,-0.04690708619325456
15,-12.685485201999079
16,-2.6296071338744015
17,-10.960450963369908
18,0.3910028046375788
2,1, 1, 1, 0, 3, 0.00,15.00,Tuesday
7,-11.549999999999999
8,0.0
9,0.0
10,0.0
11,0.0
12,0.0
13,0.0
14,-0.08442568030371708
15,-12.561510048815057
16,-2.6280165694857375
17,-10.824449371947879
18,0.34845594037905538
2,1, 1, 1, 0, 3,15.00,30.00,Tuesday
7,-11.399999999999999
8,0.0
9,0.0
10,0.0
11,0.0
12,0.0
13,0.0
14,-0.11833182605265955
15,-12.43899271946136
16,-2.624294704426916
17,-10.688866879136129
18,0.30888880338898547
2,1, 1, 1, 0, 3,30.00,45.00,Tuesday
7,-11.25
8,0.0
9,0.0
10,0.0
11,0.0
12,0.0
13,0.0
14,-0.15113995045411769
15,-12.318109567990743
16,-2.618609772737102
17,-10.553391539598124
18,0.27065879645676618
2,1, 1, 1, 0, 3,45.00,60.00,Tuesday
7,-11.1
8,0.0
9,0.0
10,0.0
11,0.0
12,0.0
13,0.0
14,-0.18336730056790147
15,-12.198922579301465
16,-2.6122286122470088
17,-10.418324126496828
18,0.2334053535797475
2,1, 1, 1, 0, 4, 0.00,15.00,Tuesday
7,-11.1
8,0.0
9,0.0
10,0.0
11,0.0
12,0.0
13,0.0
14,-0.2190927485818449
15,-12.167463938926812
16,-2.650914782999564
17,-10.429190719518204
18,0.19629704063472099
2,1, 1, 1, 0, 4,15.00,30.00,Tuesday
7,-11.1
8,0.0
9,0.0
10,0.0
11,0.0
12,0.0
13,0.0
14,-0.254407537732219
15,-12.137224186173688
16,-2.684643618326504
17,-10.447109642843998
18,0.1589829604541225
2,1, 1, 1, 0, 4,30.00,45.00,Tuesday
7,-11.1
8,0.0
9,0.0
10,0.0
11,0.0
12,0.0
13,0.0
14,-0.28983433986707177
15,-12.108659211759236
16,-2.717684316599275
17,-10.465121208320625
18,0.12150127755473857
2,1, 1, 1, 0, 4,45.00,60.00,Tuesday
7,-11.1
8,0.0
9,0.0
10,0.0
11,0.0
12,0.0
13,0.0
14,-0.32531357550693409
15,-12.08163408208938
16,-2.7505498026732768
17,-10.48259269166897
18,0.08398349095902696
2,1, 1, 1, 0, 5, 0.00,15.00,Tuesday
7,-10.975
8,0.0
9,0.0
10,0.0
11,0.0
12,0.0
13,0.0
14,-0.35406649931018638
15,-11.959307390592353
16,-2.749517845316859
17,-10.393301950957096
18,0.047601501770706367
2,1, 1, 1, 0, 5,15.00,30.00,Tuesday
7,-10.85
8,0.0
9,0.0
10,0.0
11,0.0
12,0.0
13,0.0
14,-0.3836389736864378
15,-11.83711959941089
16,-2.7498176710357145
17,-10.296220107254442
18,0.012771440226664587
2,1, 1, 1, 0, 5,30.00,45.00,Tuesday
7,-10.725
8,0.0
9,0.0
10,0.0
11,0.0
12,0.0
13,0.0
14,-0.4121956658873781
15,-11.714872308825056
16,-2.750123531398174
17,-10.198379639477139
18,-0.02077351370290616
2,1, 1, 1, 0, 5,45.00,60.00,Tuesday
7,-10.6
8,0.0
9,0.0
10,0.0
11,0.0
12,0.0
13,0.0
14,-0.43997471975885329
15,-11.59263899110664
16,-2.749689299785075
17,-10.100308914589562
18,-0.05340039169130698
2,1, 1, 1, 0, 6, 0.00,15.00,Tuesday
7,-10.6
8,0.0
9,0.0
10,0.0
11,0.0
12,0.0
13,0.0
14,-0.47617207529595537
15,-11.593381012110437
16,-2.7768522101861778
17,-10.101369827081215
18,-0.08668680958348642
2,1, 1, 1, 0, 6,15.00,30.00,Tuesday
7,-10.6
8,0.0
9,0.0
10,0.0
11,0.0
12,0.0
13,0.0
14,-0.5107974820169687
15,-11.593991172172292
16,-2.805934047425808
17,-10.106232762640162
18,-0.1213618911545908
2,1, 1, 1, 0, 6,30.00,45.00,Tuesday
7,-10.6
8,0.0
9,0.0
10,0.0
11,0.0
12,0.0
13,0.0
14,-0.5460770225500877
15,-11.594684657274545
16,-2.8347115035092544
17,-10.111892113787576
18,-0.1571608555154304
2,1, 1, 1, 0, 6,45.00,60.00,Tuesday
7,-10.6
8,0.0
9,0.0
10,0.0
11,0.0
12,0.0
13,0.0
14,-0.5817098027425539
15,-11.595373881948668
16,-2.863801724841551
17,-10.11793269264183
18,-0.1935781525201722
2,1, 1, 1, 0, 7, 0.00,15.00,Tuesday
7,-10.6
8,0.0
9,0.0
10,0.0
11,0.0
12,0.0
13,0.0
14,-0.6151315707494864
15,-11.56945224057488
16,-2.89772197321264
17,-10.130088721839684
18,-0.22995915141744009
2,1, 1, 1, 0, 7,15.00,30.00,Tuesday
7,-10.6
8,0.0
9,0.0
10,0.0
11,0.0
12,0.0
13,0.0
14,-0.6487432147777246
15,-11.5448768739409
16,-2.9282669967283825
17,-10.143586140516277
18,-0.2658717564055918
2,1, 1, 1, 0, 7,30.00,45.00,Tuesday
7,-10.6
8,0.0
9,0.0
10,0.0
11,0.0
12,0.0
13,0.0
14,-0.6821134135779992
15,-11.521543703143366
16,-2.958449819842599
17,-10.156891583524953
18,-0.3012850781100245
2,1, 1, 1, 0, 7,45.00,60.00,Tuesday
7,-10.6
8,0.0
9,0.0
10,0.0
11,0.0
12,0.0
13,0.0
14,-0.7152032153827617
15,-11.49937997969015
16,-2.988259488447511
17,-10.169730518028019
18,-0.3363123771319861
2,1, 1, 1, 0, 8, 0.00,15.00,Tuesday
7,-10.45
8,0.0
9,0.0
10,0.0
11,0.0
12,0.0
13,0.0
14,-0.7492465092664032
15,-11.451960244756143
16,-2.9967538752515567
17,-10.13849925243926
18,-0.3713643422761032
2,1, 1, 1, 0, 8,15.00,30.00,Tuesday
7,-10.3
8,61.95785970721822
9,1.0
10,22.819555959623899
11,1.0
12,22.819555959623899
13,61.95785970721822
14,-0.6803267185803539
15,-9.779297915715255
16,-2.5920221647848509
17,-9.738310454949556
18,-0.3923877140885284
2,1, 1, 1, 0, 8,30.00,45.00,Tuesday
7,-10.15
8,305.95554014035715
9,1.0
10,109.75755355442667
11,1.0
12,109.75755355442667
13,305.95554014035715
14,-0.3317068239932811
15,-3.4227775163384388
16,-0.9132458166376409
17,-8.343526194970196
18,-0.36129300587745918
2,1, 1, 1, 0, 8,45.00,60.00,Tuesday
7,-10.0
8,561.1092769675322
9,1.0
10,195.8764694434918
11,1.0
12,195.8764694434918
13,561.1092769675322
14,0.10682531355324265
15,3.0741392726131604
16,0.8829173474306344
17,-6.966590039200128
18,-0.2730097462208882
2,1, 1, 1, 0, 9, 0.00,15.00,Tuesday
7,-9.725
8,819.9870887287569
9,1.0
10,278.97248314719988
11,1.0
12,278.97248314719988
13,819.9870887287569
14,0.4292433525635815
15,8.252503926011597
16,2.4546164523692939
17,-5.777978527695041
18,-0.1381854772934749
2,1, 1, 1, 0, 9,15.00,30.00,Tuesday
7,-9.45
8,1097.2934583220668
9,1.0
10,364.91995730569456
11,1.0
12,364.91995730569456
13,1097.2934583220668
14,0.7884304039655736
15,13.334787770821754
16,4.010943148319768
17,-4.6041455939736128
18,0.035508690324943418
2,1, 1, 1, 0, 9,30.00,45.00,Tuesday
7,-9.175
8,1286.3439422671686
9,1.0
10,420.35879993239237
11,1.0
12,420.35879993239237
13,1286.3439422671686
14,1.0300933230781116
15,16.09472341267974
16,5.030257947157224
17,-3.8906310295886898
18,0.22926380503793074
2,1, 1, 1, 0, 9,45.00,60.00,Tuesday
7,-8.9
8,1484.0055643311294
9,1.0
10,478.00138373643099
11,1.0
12,478.00138373643099
13,1484.0055643311294
14,1.316411734560984
15,19.090563872402929
16,6.056373404204123
17,-3.1482168499213118
18,0.4347954663533342
2,1, 1, 1, 0,10, 0.00,15.00,Tuesday
7,-8.350000000000002
8,1687.056327285648
9,1.0
10,536.9185644770597
11,1.0
12,536.9185644770597
13,1687.056327285648
14,1.5418771151546725
15,20.212053892624078
16,7.1085335258254649
17,-2.3836572320552706
18,0.6566630822399164
2,1, 1, 1, 0,10,15.00,30.00,Tuesday
7,-7.800000000000001
8,1897.7690264986789
9,1.0
10,598.0969199229219
11,1.0
12,598.0969199229219
13,1897.7690264986789
14,1.7917709847333852
15,21.46803306901713
16,8.182342959275616
17,-1.6229301403861883
18,0.8924027173512172
2,1, 1, 1, 0,10,30.00,45.00,Tuesday
7,-7.25
8,2039.5712829188775
9,1.0
10,637.6133352894237
11,1.0
12,637.6133352894237
13,2039.5712829188775
14,1.9750077719406947
15,21.530427113077626
16,8.929715930281646
17,-1.1067651166982842
18,1.1277841354852303
2,1, 1, 1, 0,10,45.00,60.00,Tuesday
7,-6.7
8,2179.302602851608
9,1.0
10,676.6412284283772
11,1.0
12,676.6412284283772
13,2179.302602851608
14,2.1732509289883845
15,21.692746867167715
16,9.652855441831662
17,-0.5953266348179227
18,1.354400309031323
2,1, 1, 1, 0,11, 0.00,15.00,Tuesday
7,-6.275
8,2316.405832489179
9,1.0
10,715.0112779846514
11,1.0
12,715.0112779846514
13,2316.405832489179
14,2.4483872673528905
15,23.789952923875896
16,10.414777094738384
17,0.16244863340358507
18,1.5762407924102553
2,1, 1, 1, 0,11,15.00,30.00,Tuesday
7,-5.85
8,2450.108512758863
9,1.0
10,752.5077794605232
11,1.0
12,752.5077794605232
13,2450.108512758863
14,2.7088358237367546
15,25.72470479297362
16,11.162877571741888
17,0.8969649349388646
18,1.7983312523360238
2,1, 1, 1, 0,11,30.00,45.00,Tuesday
7,-5.425
8,2414.59927549673
9,1.0
10,742.5988714321785
11,1.0
12,742.5988714321785
13,2414.59927549673
14,2.8505835247979518
15,25.576435395985017
16,11.24311293424853
17,1.169680186789094
18,2.0058181502591116
2,1, 1, 1, 0,11,45.00,60.00,Tuesday
7,-5.0
8,2361.5685836788195
9,1.0
10,727.8169025450712
11,1.0
12,727.8169025450712
13,2361.5685836788195
14,2.9886102675877148
15,25.346747007181098
16,11.231317419612651
17,1.4048097589699183
18,2.188495077350199
2,1, 1, 1, 0,12, 0.00,15.00,Tuesday
7,-4.575
8,2269.666737061517
9,1.0
10,700.3759009170325
11,1.0
12,700.3759009170325
13,2269.666737061517
14,3.0794341069996884
15,24.603751456318667
16,11.041881565044548
17,1.5626079083900777
18,2.341778759069362
2,1, 1, 1, 0,12,15.00,30.00,Tuesday
7,-4.15
8,2198.81499357967
9,1.0
10,681.6705029034473
11,1.0
12,681.6705029034473
13,2198.81499357967
14,3.1880909905307046
15,24.272888376253265
16,10.962000040628084
17,1.803047470788215
18,2.4726269239369516
2,1, 1, 1, 0,12,30.00,45.00,Tuesday
7,-3.7249999999999998
8,1925.8445508031767
9,1.0
10,602.01865277251
11,1.0
12,602.01865277251
13,1925.8445508031767
14,3.099114108844294
15,21.2443885852533
16,10.015114605090617
17,1.4792428652637
18,2.564296600905244
2,1, 1, 1, 0,12,45.00,60.00,Tuesday
7,-3.3
8,1570.1948925456393
9,1.0
10,493.55004396206007
11,1.0
12,493.55004396206007
13,1570.1948925456393
14,2.9183705177144425
15,17.065443689854335
16,8.571523842078136
17,0.8617980479394873
18,2.601047507870022
2,1, 1, 1, 0,13, 0.00,15.00,Tuesday
7,-3.0249999999999996
8,1289.199618694269
9,1.0
10,412.335026418112
11,1.0
12,412.335026418112
13,1289.199618694269
14,2.7927397364248209
15,14.220264129429646
16,7.453670542244822
17,0.43690737540225657
18,2.5932379200309825
2,1, 1, 1, 0,13,15.00,30.00,Tuesday
7,-2.75
8,938.1263556570124
9,1.0
10,305.94037763660148
11,1.0
12,305.94037763660148
13,938.1263556570124
14,2.5522925083000529
15,10.046226840977587
16,5.907197885732103
17,-0.2590024454407853
18,2.5432547596439689
2,1, 1, 1, 0,13,30.00,45.00,Tuesday
7,-2.475
8,853.4839619010562
9,1.0
10,281.0763483922329
11,1.0
12,281.0763483922329
13,853.4839619010562
14,2.532366561436381
15,9.531619729799044
16,5.5672130344908059
17,-0.17798969730171167
18,2.483110516378994
2,1, 1, 1, 0,13,45.00,60.00,Tuesday
7,-2.2
8,770.5898405140247
9,1.0
10,256.7721209415886
11,1.0
12,256.7721209415886
13,770.5898405140247
14,2.502320663177103
15,8.925477047664302
16,5.270226112003684
17,-0.07527986132765818
18,2.4341678917679228
2,1, 1, 1, 0,14, 0.00,15.00,Tuesday
7,-1.9250000000000003
8,627.6768724349154
9,1.0
10,210.73276284570657
11,1.0
12,210.73276284570657
13,627.6768724349154
14,2.403660647699841
15,7.3764032267540549
16,4.600624228877905
17,-0.23456292983064487
18,2.39199638379608
2,1, 1, 1, 0,14,15.00,30.00,Tuesday
7,-1.6500000000000002
8,554.282422856042
9,1.0
10,189.38488290342594
11,1.0
12,189.38488290342594
13,554.282422856042
14,2.381110562855799
15,6.968810584876019
16,4.312026462467998
17,-0.15500284622532946
18,2.356453336334219
2,1, 1, 1, 0,14,30.00,45.00,Tuesday
7,-1.375
8,529.6312435247287
9,1.0
10,179.3940297802914
11,1.0
12,179.3940297802914
13,529.6312435247287
14,2.3854069017384056
15,7.089521453357059
16,4.2240101769686479
17,0.047212746257741858
18,2.3290035480052024
2,1, 1, 1, 0,14,45.00,60.00,Tuesday
7,-1.1
8,504.2805236850372
9,1.0
10,169.43349014176136
11,1.0
12,169.43349014176136
13,504.2805236850372
14,2.387329446562904
15,7.186251280867458
16,4.134295529390386
17,0.24731565202637285
18,2.3093364551133188
2,1, 1, 1, 0,15, 0.00,15.00,Tuesday
7,-1.1
8,530.0392234562089
9,1.0
10,178.15692317953907
11,1.0
12,178.15692317953907
13,530.0392234562089
14,2.433902474523918
15,8.00025507932945
16,4.290182218563245
17,0.3894865457450578
18,2.2996462938667809
2,1, 1, 1, 0,15,15.00,30.00,Tuesday
7,-1.1
8,497.73200406765877
9,1.0
10,166.40516310952945
11,1.0
12,166.40516310952945
13,497.73200406765877
14,2.400982025090724
15,7.636523939991452
16,4.105811860529116
17,0.2970914743876847
18,2.293832672398231
2,1, 1, 1, 0,15,30.00,45.00,Tuesday
7,-1.1
8,418.0361295363266
9,1.0
10,140.8967369711617
11,1.0
12,140.8967369711617
13,418.0361295363266
14,2.316946302328437
15,6.428304357171184
16,3.6635865498085424
17,0.006492772111414524
18,2.2800241324095915
2,1, 1, 1, 0,15,45.00,60.00,Tuesday
7,-1.1
8,342.52931153504758
9,1.0
10,116.57355796743004
11,1.0
12,116.57355796743004
13,342.52931153504758
14,2.2265172277796148
15,5.215668737969364
16,3.215165187825619
17,-0.28360763654723089
18,2.251828692676997
2,1, 1, 1, 0,16, 0.00,15.00,Tuesday
7,-1.1
8,270.619372062015
9,1.0
10,93.14939272689483
11,1.0
12,93.14939272689483
13,270.619372062015
14,2.138035199179913
15,4.156538002561948
16,2.7875187351997399
17,-0.5189279494044286
18,2.210505277105406
2,1, 1, 1, 0,16,15.00,30.00,Tuesday
7,-1.1
8,167.23127681230143
9,1.0
10,57.94047897402063
11,1.0
12,57.94047897402063
13,167.23127681230143
14,1.9814489773457376
15,2.026059662271971
16,2.0792828940526535
17,-0.9652811445179168
18,2.1534322925913855
2,1, 1, 1, 0,16,30.00,45.00,Tuesday
7,-1.1
8,129.0137792651625
9,1.0
10,45.38251793443488
11,1.0
12,45.38251793443488
13,129.0137792651625
14,1.9259606593628774
15,1.407627832515691
16,1.7991210833634455
17,-1.1039594055342832
18,2.088156393802806
2,1, 1, 1, 0,16,45.00,60.00,Tuesday
7,-1.1
8,89.6692244783692
9,1.0
10,32.02625108222755
11,1.0
12,32.02625108222755
13,89.6692244783692
14,1.838870871334356
15,0.5339882073511404
16,1.5207723726991845
17,-1.2687406229112526
18,2.0205472237499157
2,1, 1, 1, 0,17, 0.00,15.00,Tuesday
7,-1.1
8,49.03739529913499
9,1.0
10,17.762198626050539
11,1.0
12,17.762198626050539
13,49.03739529913499
14,1.7233881444199002
15,-0.7313612398225482
16,1.1849345931701692
17,-1.5640811741916423
18,1.9478989503931173
2,1, 1, 1, 0,17,15.00,30.00,Tuesday
7,-1.1
8,0.0
9,0.0
10,0.0
11,0.0
12,0.0
13,0.0
14,1.5604943335017854
15,-2.574573690889763
16,0.7781876535619858
17,-1.9066973745543692
18,1.8595851337278946
2,1, 1, 1, 0,17,30.00,45.00,Tuesday
7,-1.1
8,0.0
9,0.0
10,0.0
11,0.0
12,0.0
13,0.0
14,1.5174974199798852
15,-2.7163803985070609
16,0.6896301338185822
17,-1.9738598333355527
18,1.7683720966571986
2,1, 1, 1, 0,17,45.00,60.00,Tuesday
7,-1.1
8,0.0
9,0.0
10,0.0
11,0.0
12,0.0
13,0.0
14,1.4590463299901127
15,-2.9185561266873738
16,0.6313437127195698
17,-2.0468769347174886
18,1.6894288779430145
2,1, 1, 1, 0,18, 0.00,15.00,Tuesday
7,-1.25
8,0.0
9,0.0
10,0.0
11,0.0
12,0.0
13,0.0
14,1.4114171922752455
15,-3.0649993324274504
16,0.5526257461405066
17,-2.1872341995255057
18,1.6268143418005224
2,1, 1, 1, 0,18,15.00,30.00,Tuesday
7,-1.4
8,0.0
9,0.0
10,0.0
11,0.0
12,0.0
13,0.0
14,1.3684933202614667
15,-3.2173582095846124
16,0.4857024763892923
17,-2.317440417467992
18,1.577459374999659
2,1, 1, 1, 0,18,30.00,45.00,Tuesday
7,-1.5499999999999999
8,0.0
9,0.0
10,0.0
11,0.0
12,0.0
13,0.0
14,1.3311238633532035
15,-3.369039821819152
16,0.4228339961389338
17,-2.44715374943371
18,1.5367348010718168
2,1, 1, 1, 0,18,45.00,60.00,Tuesday
7,-1.7
8,0.0
9,0.0
10,0.0
11,0.0
12,0.0
13,0.0
14,1.2953218868471464
15,-3.5209608826894605
16,0.36362690845624
17,-2.5758221143935318
18,1.5009620507872704
2,1, 1, 1, 0,19, 0.00,15.00,Tuesday
7,-1.825
8,0.0
9,0.0
10,0.0
11,0.0
12,0.0
13,0.0
14,1.2879328143151
15,-3.3564581788992968
16,0.3384110638957054
17,-2.5906115747923765
18,1.4716773264281429
2,1, 1, 1, 0,19,15.00,30.00,Tuesday
7,-1.9500000000000002
8,0.0
9,0.0
10,0.0
11,0.0
12,0.0
13,0.0
14,1.280480338539479
15,-3.2753293570920478
16,0.3155733902768816
17,-2.6277391613901956
18,1.450312122275597
2,1, 1, 1, 0,19,30.00,45.00,Tuesday
7,-2.075
8,0.0
9,0.0
10,0.0
11,0.0
12,0.0
13,0.0
14,1.2677343882640227
15,-3.3452143484101857
16,0.2825738963347817
17,-2.7127443606982526
18,1.435090183101389
2,1, 1, 1, 0,19,45.00,60.00,Tuesday
7,-2.2
8,0.0
9,0.0
10,0.0
11,0.0
12,0.0
13,0.0
14,1.258431815607793
15,-3.3103020050435636
16,0.2613946020991307
17,-2.7670264387074896
18,1.4230188716300754
2,1, 1, 1, 0,20, 0.00,15.00,Tuesday
7,-1.9250000000000003
8,0.0
9,0.0
10,0.0
11,0.0
12,0.0
13,0.0
14,1.2649001565911669
15,-3.0059139318227667
16,0.3231860142867049
17,-2.5330431478021184
18,1.4139023961166626
2,1, 1, 1, 0,20,15.00,30.00,Tuesday
7,-1.6500000000000002
8,0.0
9,0.0
10,0.0
11,0.0
12,0.0
13,0.0
14,1.2724178176415134
15,-2.7048355476063556
16,0.3854004609030426
17,-2.2922417714955829
18,1.4079200589907777
2,1, 1, 1, 0,20,30.00,45.00,Tuesday
7,-1.375
8,0.0
9,0.0
10,0.0
11,0.0
12,0.0
13,0.0
14,1.2814890109107194
15,-2.4052076437325375
16,0.4493224962749309
17,-2.0499289490219327
18,1.4046937984556143
2,1, 1, 1, 0,20,45.00,60.00,Tuesday
7,-1.1
8,0.0
9,0.0
10,0.0
11,0.0
12,0.0
13,0.0
14,1.291644178852128
15,-2.1069841273206246
16,0.5150074589819269
17,-1.8062773801439108
18,1.4035966583176188
2,1, 1, 1, 0,21, 0.00,15.00,Tuesday
7,-1.25
8,0.0
9,0.0
10,0.0
11,0.0
12,0.0
13,0.0
14,1.257576756065556
15,-2.401230018833669
16,0.4569556701227384
17,-1.9735358759784277
18,1.3985372439197852
2,1, 1, 1, 0,21,15.00,30.00,Tuesday
7,-1.4
8,0.0
9,0.0
10,0.0
11,0.0
12,0.0
13,0.0
14,1.2210501152730753
15,-2.6247418115301115
16,0.40220934371859587
17,-2.1209250497850009
18,1.3845882862153334
2,1, 1, 1, 0,21,30.00,45.00,Tuesday
7,-1.5499999999999999
8,0.0
9,0.0
10,0.0
11,0.0
12,0.0
13,0.0
14,1.1715605243575103
15,-2.9860725437270685
16,0.3301102255055639
17,-2.3105203517500287
18,1.3599426724830098
2,1, 1, 1, 0,21,45.00,60.00,Tuesday
7,-1.7
8,0.0
9,0.0
10,0.0
11,0.0
12,0.0
13,0.0
14,1.1168211981907344
15,-3.457358489684331
16,0.24497625948129099
17,-2.534333856054104
18,1.326108665488505
2,1, 1, 1, 0,22, 0.00,15.00,Tuesday
7,-1.5499999999999999
8,0.0
9,0.0
10,0.0
11,0.0
12,0.0
13,0.0
14,1.1379713617292653
15,-2.9467447636456418
16,0.2801488134559804
17,-2.3148024925866936
18,1.296932296717916
2,1, 1, 1, 0,22,15.00,30.00,Tuesday
7,-1.4
8,0.0
9,0.0
10,0.0
11,0.0
12,0.0
13,0.0
14,1.1495897241461009
15,-2.6009399030869049
16,0.33010803364834376
17,-2.1271560787910177
18,1.280378307508979
2,1, 1, 1, 0,22,30.00,45.00,Tuesday
7,-1.25
8,0.0
9,0.0
10,0.0
11,0.0
12,0.0
13,0.0
14,1.1593765810143147
15,-2.3737742712046
16,0.37395980952976518
17,-1.9846070504584077
18,1.2749309277621413
2,1, 1, 1, 0,22,45.00,60.00,Tuesday
7,-1.1
8,0.0
9,0.0
10,0.0
11,0.0
12,0.0
13,0.0
14,1.1728973163957115
15,-2.078583982664172
16,0.42410858216328509
17,-1.794252244063216
18,1.2757948449967105
2,1, 1, 1, 0,23, 0.00,15.00,Tuesday
7,-1.25
8,0.0
9,0.0
10,0.0
11,0.0
12,0.0
13,0.0
14,1.1390310689080719
15,-2.382461751779028
16,0.34189217427774568
17,-2.0741521332542449
18,1.273338768735947
2,1, 1, 1, 0,23,15.00,30.00,Tuesday
7,-1.4
8,0.0
9,0.0
10,0.0
11,0.0
12,0.0
13,0.0
14,1.105070974620275
15,-2.687048145374493
16,0.24728098407013023
17,-2.363340846228539
18,1.2617646446591214
2,1, 1, 1, 0,23,30.00,45.00,Tuesday
7,-1.5499999999999999
8,0.0
9,0.0
10,0.0
11,0.0
12,0.0
13,0.0
14,1.0668994035472912
15,-2.99211636473118
16,0.15114888938609284
17,-2.6526547115281575
18,1.2409357682631306
2,1, 1, 1, 0,23,45.00,60.00,Tuesday
7,-1.7
8,0.0
9,0.0
10,0.0
11,0.0
12,0.0
13,0.0
14,1.0262288141224914
15,-3.297509852746694
16,0.05175641590142277
17,-2.9425010143470446
18,1.213194540732103
2,1, 1, 1, 0,24, 0.00,15.00,Tuesday
7,-1.7
8,0.0
9,0.0
10,0.0
11,0.0
12,0.0
13,0.0
14,1.003759138268819
15,-3.3511253303067085
16,0.014772571920957489
17,-3.000730988210421
18,1.1839399946650862
2,1, 1, 1, 0,24,15.00,30.00,Tuesday
7,-1.7
8,0.0
9,0.0
10,0.0
11,0.0
12,0.0
13,0.0
14,0.9782024059771599
15,-3.4055856432752149
16,-0.018279866959460379
17,-3.0585579571080645
18,1.156407156745609
2,1, 1, 1, 0,24,30.00,45.00,Tuesday
7,-1.7
8,0.0
9,0.0
10,0.0
11,0.0
12,0.0
13,0.0
14,0.9532472849982531
15,-3.4599081018255486
16,-0.05199336600207971
17,-3.1166353897083924
18,1.1309879085627464
2,1, 1, 1, 0,24,45.00,60.00,Tuesday
7,-1.7
8,0.0
9,0.0
10,0.0
11,0.0
12,0.0
13,0.0
14,0.9288642249747735
15,-3.514228486270044
16,-0.08510566554537036
17,-3.1745163546347614
18,1.1069602182134866
End of Data
 Number of Records Written=        1152
