Program Version,EnergyPlus, Version 9.5.0-de239b2e5f, YMD=2022.11.01 22:08
1,5,Environment Title[],Latitude[deg],Longitude[deg],Time Zone[],Elevation[m]
2,8,Day of Simulation[],Month[],Day of Month[],DST Indicator[1=yes 0=no],Hour[],StartMinute[],EndMinute[],DayType
3,5,Cumulative Day of Simulation[],Month[],Day of Month[],DST Indicator[1=yes 0=no],DayType  ! When Daily Report Variables Requested
4,2,Cumulative Days of Simulation[],Month[]  ! When Monthly Report Variables Requested
5,1,Cumulative Days of Simulation[] ! When Run Period Report Variables Requested
6,1,Calendar Year of Simulation[] ! When Annual Report Variables Requested
7,1,Environment,Site Outdoor Air Drybulb Temperature [C] !TimeStep
8,1,ZONE ONE,Zone Windows Total Transmitted Solar Radiation Rate [W] !TimeStep
9,1,ZN001:WALL001,Surface Outside Face Sunlit Fraction [] !TimeStep
10,1,ZN001:WALL001,Surface Outside Face Incident Solar Radiation Rate per Area [W/m2] !TimeStep
11,1,ZN001:WALL001:WIN001,Surface Outside Face Sunlit Fraction [] !TimeStep
12,1,ZN001:WALL001:WIN001,Surface Outside Face Incident Solar Radiation Rate per Area [W/m2] !TimeStep
13,1,ZN001:WALL001:WIN001,Surface Window Transmitted Solar Radiation Rate [W] !TimeStep
14,1,ZN001:WALL001,Surface Inside Face Temperature [C] !TimeStep
15,1,ZN001:WALL001,Surface Outside Face Temperature [C] !TimeStep
16,1,ZN001:WALL001:WIN001,Surface Inside Face Temperature [C] !TimeStep
17,1,ZN001:WALL001:WIN001,Surface Outside Face Temperature [C] !TimeStep
18,1,ZONE ONE,Zone Mean Air Temperature [C] !TimeStep
End of Data Dictionary
1,RUN PERIOD 1,  41.98, -87.92,  -6.00, 201.00
2,1, 1, 1, 0, 1, 0.00,15.00,Tuesday
7,-4.324999999999999
8,0.0
9,0.0
10,0.0
11,0.0
12,0.0
13,0.0
14,3.826387004459437
15,-5.934252638207974
16,1.8662124900100708
17,-4.735397225493216
18,4.2335314233447829
2,1, 1, 1, 0, 1,15.00,30.00,Tuesday
7,-6.949999999999999
8,0.0
9,0.0
10,0.0
11,0.0
12,0.0
13,0.0
14,3.6478042751661499
15,-8.40197186035564
16,1.255493994780295
17,-6.823088771553785
18,4.1421183770183369
2,1, 1, 1, 0, 1,30.00,45.00,Tuesday
7,-9.575
8,0.0
9,0.0
10,0.0
11,0.0
12,0.0
13,0.0
14,3.449319013857481
15,-10.877816620761623
16,0.6404963992483204
17,-8.91733642187171
18,4.018299874920827
2,1, 1, 1, 0, 1,45.00,60.00,Tuesday
7,-12.2
8,0.0
9,0.0
10,0.0
11,0.0
12,0.0
13,0.0
14,3.235008252758843
15,-13.360250184580537
16,0.011277441515289866
17,-11.019501123199177
18,3.8716350611193004
2,1, 1, 1, 0, 2, 0.00,15.00,Tuesday
7,-12.075
8,0.0
9,0.0
10,0.0
11,0.0
12,0.0
13,0.0
14,3.172869269820259
15,-13.161547987398436
16,-0.053890169346288988
17,-10.866561497510134
18,3.739217483726405
2,1, 1, 1, 0, 2,15.00,30.00,Tuesday
7,-11.95
8,0.0
9,0.0
10,0.0
11,0.0
12,0.0
13,0.0
14,3.0966180385130568
15,-12.98436000032696
16,-0.08195416315300008
17,-10.720256284675316
18,3.6385203680836075
2,1, 1, 1, 0, 2,30.00,45.00,Tuesday
7,-11.825
8,0.0
9,0.0
10,0.0
11,0.0
12,0.0
13,0.0
14,3.0374373950384609
15,-12.805993043912159
16,-0.10470507907905358
17,-10.573569232724708
18,3.5646672008685984
2,1, 1, 1, 0, 2,45.00,60.00,Tuesday
7,-11.7
8,0.0
9,0.0
10,0.0
11,0.0
12,0.0
13,0.0
14,2.989552911450379
15,-12.627695794207062
16,-0.11479700809155702
17,-10.42422602330771
18,3.5068536921959998
2,1, 1, 1, 0, 3, 0.00,15.00,Tuesday
7,-11.549999999999999
8,0.0
9,0.0
10,0.0
11,0.0
12,0.0
13,0.0
14,2.943385454322673
15,-12.502341618717232
16,-0.11577650327706124
17,-10.291073156756739
18,3.4561301633128669
2,1, 1, 1, 0, 3,15.00,30.00,Tuesday
7,-11.399999999999999
8,0.0
9,0.0
10,0.0
11,0.0
12,0.0
13,0.0
14,2.900484671696195
15,-12.378385575726961
16,-0.12152146280470788
17,-10.139594894958293
18,3.407853105350543
2,1, 1, 1, 0, 3,30.00,45.00,Tuesday
7,-11.25
8,0.0
9,0.0
10,0.0
11,0.0
12,0.0
13,0.0
14,2.8586131456317038
15,-12.255994881561968
16,-0.11877479492841303
17,-10.005610535537074
18,3.36068559563623
2,1, 1, 1, 0, 3,45.00,60.00,Tuesday
7,-11.1
8,0.0
9,0.0
10,0.0
11,0.0
12,0.0
13,0.0
14,2.81723124751597
15,-12.135222320734492
16,-0.11822525647301063
17,-9.863660258251344
18,3.314401920794877
2,1, 1, 1, 0, 4, 0.00,15.00,Tuesday
7,-11.1
8,0.0
9,0.0
10,0.0
11,0.0
12,0.0
13,0.0
14,2.7721945989624445
15,-12.105756957043356
16,-0.1677389259618849
17,-9.885105133890875
18,3.26809338740687
2,1, 1, 1, 0, 4,15.00,30.00,Tuesday
7,-11.1
8,0.0
9,0.0
10,0.0
11,0.0
12,0.0
13,0.0
14,2.7275662221167429
15,-12.07743188922485
16,-0.21158496872254774
17,-9.913574165610499
18,3.221411450209144
2,1, 1, 1, 0, 4,30.00,45.00,Tuesday
7,-11.1
8,0.0
9,0.0
10,0.0
11,0.0
12,0.0
13,0.0
14,2.682771573050357
15,-12.050689087194634
16,-0.25468618294405589
17,-9.941879979121723
18,3.1744613809078019
2,1, 1, 1, 0, 4,45.00,60.00,Tuesday
7,-11.1
8,0.0
9,0.0
10,0.0
11,0.0
12,0.0
13,0.0
14,2.6379069564578576
15,-12.02539603324231
16,-0.2975829481083565
17,-9.969377075020248
18,3.1274391719407759
2,1, 1, 1, 0, 5, 0.00,15.00,Tuesday
7,-10.975
8,0.0
9,0.0
10,0.0
11,0.0
12,0.0
13,0.0
14,2.5987027044598398
15,-11.903298236903199
16,-0.30483505794063606
17,-9.881915031760059
18,3.0814974870351907
2,1, 1, 1, 0, 5,15.00,30.00,Tuesday
7,-10.85
8,0.0
9,0.0
10,0.0
11,0.0
12,0.0
13,0.0
14,2.5596979960192924
15,-11.781283490190356
16,-0.3140400404125785
17,-9.78654575364419
18,3.037112997203248
2,1, 1, 1, 0, 5,30.00,45.00,Tuesday
7,-10.725
8,0.0
9,0.0
10,0.0
11,0.0
12,0.0
13,0.0
14,2.5216821025612354
15,-11.659247247928642
16,-0.32297969044020649
17,-9.690337093685912
18,2.9940759860114118
2,1, 1, 1, 0, 5,45.00,60.00,Tuesday
7,-10.6
8,0.0
9,0.0
10,0.0
11,0.0
12,0.0
13,0.0
14,2.4844967556668755
15,-11.537220731574026
16,-0.3311478212134489
17,-9.593897958632397
18,2.9520232946385929
2,1, 1, 1, 0, 6, 0.00,15.00,Tuesday
7,-10.6
8,0.0
9,0.0
10,0.0
11,0.0
12,0.0
13,0.0
14,2.4401901021102145
15,-11.538107691813363
16,-0.3657819032480347
17,-9.597104612876194
18,2.909467370805202
2,1, 1, 1, 0, 6,15.00,30.00,Tuesday
7,-10.6
8,0.0
9,0.0
10,0.0
11,0.0
12,0.0
13,0.0
14,2.3964692221310086
15,-11.538922321432266
16,-0.40500039121320699
17,-9.601187599021216
18,2.8655223475197917
2,1, 1, 1, 0, 6,30.00,45.00,Tuesday
7,-10.6
8,0.0
9,0.0
10,0.0
11,0.0
12,0.0
13,0.0
14,2.3522171567462064
15,-11.539783463392979
16,-0.441549308497315
17,-9.60834169792463
18,2.8204545680274024
2,1, 1, 1, 0, 6,45.00,60.00,Tuesday
7,-10.6
8,0.0
9,0.0
10,0.0
11,0.0
12,0.0
13,0.0
14,2.307608320195282
15,-11.540642992993203
16,-0.4783221375428184
17,-9.615955741965309
18,2.7748128466976977
2,1, 1, 1, 0, 7, 0.00,15.00,Tuesday
7,-10.6
8,0.0
9,0.0
10,0.0
11,0.0
12,0.0
13,0.0
14,2.265072894323465
15,-11.5163247317311
16,-0.5200862086688289
17,-9.638920498226355
18,2.7293129294646225
2,1, 1, 1, 0, 7,15.00,30.00,Tuesday
7,-10.6
8,0.0
9,0.0
10,0.0
11,0.0
12,0.0
13,0.0
14,2.222395766500102
15,-11.493266928035283
16,-0.5601675287575745
17,-9.661938144164367
18,2.6843190053543459
2,1, 1, 1, 0, 7,30.00,45.00,Tuesday
7,-10.6
8,0.0
9,0.0
10,0.0
11,0.0
12,0.0
13,0.0
14,2.1800012222824067
15,-11.471379467186221
16,-0.5998713445109729
17,-9.684319132581607
18,2.639811313910617
2,1, 1, 1, 0, 7,45.00,60.00,Tuesday
7,-10.6
8,0.0
9,0.0
10,0.0
11,0.0
12,0.0
13,0.0
14,2.137898736914509
15,-11.450593304958629
16,-0.6391266628409085
17,-9.705948421583571
18,2.5956684199882447
2,1, 1, 1, 0, 8, 0.00,15.00,Tuesday
7,-10.45
8,0.0
9,0.0
10,0.0
11,0.0
12,0.0
13,0.0
14,2.0950527245651089
15,-11.402106992334679
16,-0.6564776909576153
17,-9.658481742817515
18,2.5515099770778315
2,1, 1, 1, 0, 8,15.00,30.00,Tuesday
7,-10.3
8,119.6028878150857
9,1.0
10,22.819555959623899
11,1.0
12,22.819555959623899
13,119.6028878150857
14,2.165803198415725
15,-9.728873139616132
16,-0.3138417868441934
17,-9.305248508392765
18,2.523886783335898
2,1, 1, 1, 0, 8,30.00,45.00,Tuesday
7,-10.15
8,587.512245408821
9,1.0
10,109.75755355442667
11,1.0
12,109.75755355442667
13,587.512245408821
14,2.545733325131904
15,-3.3638149697516157
16,1.1184410604294044
17,-8.075116909769122
18,2.558543309460065
2,1, 1, 1, 0, 8,45.00,60.00,Tuesday
7,-10.0
8,1069.2044080537576
9,1.0
10,195.8764694434918
11,1.0
12,195.8764694434918
13,1069.2044080537576
14,3.0411435571331837
15,3.1359200500449404
16,2.7274646307360514
17,-6.8318500553479
18,2.6607469550583717
2,1, 1, 1, 0, 9, 0.00,15.00,Tuesday
7,-9.725
8,1550.1382694506652
9,1.0
10,278.97248314719988
11,1.0
12,278.97248314719988
13,1550.1382694506652
14,3.4085752177255399
15,8.299744068591166
16,4.244186701760441
17,-5.738827321351835
18,2.813605863468122
2,1, 1, 1, 0, 9,15.00,30.00,Tuesday
7,-9.45
8,2058.0786146222565
9,1.0
10,364.91995730569456
11,1.0
12,364.91995730569456
13,2058.0786146222565
14,3.818424499170299
15,13.381602347565825
16,5.729605323837632
17,-4.6533332747151239
18,3.0090692980099105
2,1, 1, 1, 0, 9,30.00,45.00,Tuesday
7,-9.175
8,2395.4887833076056
9,1.0
10,420.35879993239237
11,1.0
12,420.35879993239237
13,2395.4887833076056
14,4.101843629135451
15,16.139715769861366
16,6.720897593571067
17,-3.9837114996320226
18,3.227521216545693
2,1, 1, 1, 0, 9,45.00,60.00,Tuesday
7,-8.9
8,2746.255395940846
9,1.0
10,478.00138373643099
11,1.0
12,478.00138373643099
13,2746.255395940846
14,4.4355145114372569
15,19.134895760031005
16,7.710457133626562
17,-3.2905421884969998
18,3.458822483877263
2,1, 1, 1, 0,10, 0.00,15.00,Tuesday
7,-8.350000000000002
8,3104.9447873664505
9,1.0
10,536.9185644770597
11,1.0
12,536.9185644770597
13,3104.9447873664505
14,4.712847908538494
15,20.253275719736508
16,8.726349247446308
17,-2.567473498434879
18,3.703513513679636
2,1, 1, 1, 0,10,15.00,30.00,Tuesday
7,-7.800000000000001
8,3476.437790371549
9,1.0
10,598.0969199229219
11,1.0
12,598.0969199229219
13,3476.437790371549
14,5.016370960595242
15,21.506870657829574
16,9.758343605485152
17,-1.848539363037787
18,3.9703045714461604
2,1, 1, 1, 0,10,30.00,45.00,Tuesday
7,-7.25
8,3721.38864729925
9,1.0
10,637.6133352894237
11,1.0
12,637.6133352894237
13,3721.38864729925
14,5.249275737887342
15,21.567195457629894
16,10.492864498273889
17,-1.3514636915023175
18,4.245273888306003
2,1, 1, 1, 0,10,45.00,60.00,Tuesday
7,-6.7
8,3962.9196328100017
9,1.0
10,676.6412284283772
11,1.0
12,676.6412284283772
13,3962.9196328100017
14,5.503583095699583
15,21.7278605449211
16,11.201821450850105
17,-0.8583173890996818
18,4.5169024152858079
2,1, 1, 1, 0,11, 0.00,15.00,Tuesday
7,-6.275
8,4200.164500071955
9,1.0
10,715.0112779846514
11,1.0
12,715.0112779846514
13,4200.164500071955
14,5.8344026854199859
15,23.825552383147014
16,11.951261815941166
17,-0.1310781713356164
18,4.78734239280181
2,1, 1, 1, 0,11,15.00,30.00,Tuesday
7,-5.85
8,4431.850876437533
9,1.0
10,752.5077794605232
11,1.0
12,752.5077794605232
13,4431.850876437533
14,6.153323494616515
15,25.76066732037179
16,12.691758155425419
17,0.5753970457576543
18,5.060912079454714
2,1, 1, 1, 0,11,30.00,45.00,Tuesday
7,-5.425
8,4365.010574499342
9,1.0
10,742.5988714321785
11,1.0
12,742.5988714321785
13,4365.010574499342
14,6.339999817398837
15,25.61257612527064
16,12.821683564403429
17,0.8595478734215476
18,5.320617598349413
2,1, 1, 1, 0,11,45.00,60.00,Tuesday
7,-5.0
8,4268.42691574584
9,1.0
10,727.8169025450712
11,1.0
12,727.8169025450712
13,4268.42691574584
14,6.522168912947298
15,25.383446169317069
16,12.86356754362555
17,1.1106157527385677
18,5.554051965792688
2,1, 1, 1, 0,12, 0.00,15.00,Tuesday
7,-4.575
8,4101.555864918962
9,1.0
10,700.3759009170325
11,1.0
12,700.3759009170325
13,4101.555864918962
14,6.648378979864185
15,24.640897734844584
16,12.74540547773347
17,1.2971966067675567
18,5.754513029076384
2,1, 1, 1, 0,12,15.00,30.00,Tuesday
7,-4.15
8,3977.0663327378126
9,1.0
10,681.6705029034473
11,1.0
12,681.6705029034473
13,3977.0663327378126
14,6.796012376740163
15,24.310507899926649
16,12.718129941589155
17,1.5566534789281264
18,5.92959846910472
2,1, 1, 1, 0,12,30.00,45.00,Tuesday
7,-3.7249999999999998
8,3490.4941187119609
9,1.0
10,602.01865277251
11,1.0
12,602.01865277251
13,3490.4941187119609
14,6.713903461286854
15,21.282202720853357
16,11.901542396957553
17,1.304284062737338
18,6.058584091158126
2,1, 1, 1, 0,12,45.00,60.00,Tuesday
7,-3.3
8,2850.0663097857207
9,1.0
10,493.55004396206007
11,1.0
12,493.55004396206007
13,2850.0663097857207
14,6.527002492153262
15,17.10378884370017
16,10.614111901530294
17,0.7852557361427444
18,6.118883196099186
2,1, 1, 1, 0,13, 0.00,15.00,Tuesday
7,-3.0249999999999996
8,2351.395510610932
9,1.0
10,412.335026418112
11,1.0
12,412.335026418112
13,2351.395510610932
14,6.39522409672617
15,14.259433588993027
16,9.59812770030095
17,0.4301176125345023
18,6.124456228573662
2,1, 1, 1, 0,13,15.00,30.00,Tuesday
7,-2.75
8,1720.5836538668696
9,1.0
10,305.94037763660148
11,1.0
12,305.94037763660148
13,1720.5836538668696
14,6.106510863759304
15,10.086168112955607
16,8.191322384739351
17,-0.1675881849267853
18,6.084565093506036
2,1, 1, 1, 0,13,30.00,45.00,Tuesday
7,-2.475
8,1570.0061284964125
9,1.0
10,281.0763483922329
11,1.0
12,281.0763483922329
13,1570.0061284964125
14,6.085439008685968
15,9.572771206743104
16,7.861726283300072
17,-0.06453085702418093
18,6.032158657910362
2,1, 1, 1, 0,13,45.00,60.00,Tuesday
7,-2.2
8,1422.568739653948
9,1.0
10,256.7721209415886
11,1.0
12,256.7721209415886
13,1422.568739653948
14,6.053193651467199
15,8.966472539901334
16,7.600395538099406
17,0.06306564865963083
18,5.9869463394374409
2,1, 1, 1, 0,14, 0.00,15.00,Tuesday
7,-1.9250000000000003
8,1161.5709924589906
9,1.0
10,210.73276284570657
11,1.0
12,210.73276284570657
13,1161.5709924589906
14,5.928460187409082
15,7.418462916352114
16,6.996863530780104
17,-0.044310598651122749
18,5.945994240992285
2,1, 1, 1, 0,14,15.00,30.00,Tuesday
7,-1.6500000000000002
8,1031.0016929419858
9,1.0
10,189.38488290342594
11,1.0
12,189.38488290342594
13,1031.0016929419858
14,5.8984678642606369
15,7.012711085357643
16,6.723727010431844
17,0.05991930497418707
18,5.910167630927257
2,1, 1, 1, 0,14,30.00,45.00,Tuesday
7,-1.375
8,983.4230783725678
9,1.0
10,179.3940297802914
11,1.0
12,179.3940297802914
13,983.4230783725678
14,5.895952436446456
15,7.135286875348703
16,6.656484149895903
17,0.2825160638968214
18,5.880850776715409
2,1, 1, 1, 0,14,45.00,60.00,Tuesday
7,-1.1
8,935.1808905358937
9,1.0
10,169.43349014176136
11,1.0
12,169.43349014176136
13,935.1808905358937
14,5.891346250352384
15,7.233736088622171
16,6.584569202476587
17,0.5033100500446608
18,5.857904747079927
2,1, 1, 1, 0,15, 0.00,15.00,Tuesday
7,-1.1
8,984.045510316693
9,1.0
10,178.15692317953907
11,1.0
12,178.15692317953907
13,984.045510316693
14,5.947133637566796
15,8.050312083852902
16,6.729638409059135
17,0.6420985283267555
18,5.84431898053335
2,1, 1, 1, 0,15,15.00,30.00,Tuesday
7,-1.1
8,924.280441860805
9,1.0
10,166.40516310952945
11,1.0
12,166.40516310952945
13,924.280441860805
14,5.9029298602754569
15,7.686967985314283
16,6.569424080726719
17,0.5729192341024714
18,5.834628632324494
2,1, 1, 1, 0,15,30.00,45.00,Tuesday
7,-1.1
8,778.9081649687519
9,1.0
10,140.8967369711617
11,1.0
12,140.8967369711617
13,778.9081649687519
14,5.797117596485392
15,6.479800844229162
16,6.14603998534443
17,0.32533183992393335
18,5.81778035040825
2,1, 1, 1, 0,15,45.00,60.00,Tuesday
7,-1.1
8,640.6248406220775
9,1.0
10,116.57355796743004
11,1.0
12,116.57355796743004
13,640.6248406220775
14,5.687216419488175
15,5.26855467589712
16,5.696529888497935
17,0.0610033482188328
18,5.785663196108513
2,1, 1, 1, 0,16, 0.00,15.00,Tuesday
7,-1.1
8,508.16814767184959
9,1.0
10,93.14939272689483
11,1.0
12,93.14939272689483
13,508.16814767184959
14,5.594056459577167
15,4.217713798182951
16,5.297717283212819
17,-0.1260898359746534
18,5.737558006130933
2,1, 1, 1, 0,16,15.00,30.00,Tuesday
7,-1.1
8,315.28687177286448
9,1.0
10,57.94047897402063
11,1.0
12,57.94047897402063
13,315.28687177286448
14,5.415788466323001
15,2.090822599140202
16,4.7062362894104698
17,-0.483895324579521
18,5.667248517585411
2,1, 1, 1, 0,16,30.00,45.00,Tuesday
7,-1.1
8,244.32952603131975
9,1.0
10,45.38251793443488
11,1.0
12,45.38251793443488
13,244.32952603131975
14,5.347990529142282
15,1.4774597228507925
16,4.461796178866962
17,-0.5685909429122944
18,5.583881476935248
2,1, 1, 1, 0,16,45.00,60.00,Tuesday
7,-1.1
8,170.49044270481444
9,1.0
10,32.02625108222755
11,1.0
12,32.02625108222755
13,170.49044270481444
14,5.2446642683047879
15,0.6107245545137785
16,4.224755124747844
17,-0.6662103180739223
18,5.495679717543233
2,1, 1, 1, 0,17, 0.00,15.00,Tuesday
7,-1.1
8,93.4928767535111
9,1.0
10,17.762198626050539
11,1.0
12,17.762198626050539
13,93.4928767535111
14,5.111989338244928
15,-0.6453644426314484
16,3.9294249571837556
17,-0.8850871771068114
18,5.4053231696361199
2,1, 1, 1, 0,17,15.00,30.00,Tuesday
7,-1.1
8,0.0
9,0.0
10,0.0
11,0.0
12,0.0
13,0.0
14,4.93111842919032
15,-2.4847015025965355
16,3.5591380034004489
17,-1.1991943795487715
18,5.304198835714314
2,1, 1, 1, 0,17,30.00,45.00,Tuesday
7,-1.1
8,0.0
9,0.0
10,0.0
11,0.0
12,0.0
13,0.0
14,4.878646426348827
15,-2.6226249428767307
16,3.4674615575263489
17,-1.2357890961432077
18,5.20625283841508
2,1, 1, 1, 0,17,45.00,60.00,Tuesday
7,-1.1
8,0.0
9,0.0
10,0.0
11,0.0
12,0.0
13,0.0
14,4.811716151121282
15,-2.817331759446981
16,3.4139650767142486
17,-1.2640010866517742
18,5.124096740061151
2,1, 1, 1, 0,18, 0.00,15.00,Tuesday
7,-1.25
8,0.0
9,0.0
10,0.0
11,0.0
12,0.0
13,0.0
14,4.756409493705208
15,-2.964678951317083
16,3.3297742381701029
17,-1.4048407186993473
18,5.058774695570352
2,1, 1, 1, 0,18,15.00,30.00,Tuesday
7,-1.4
8,0.0
9,0.0
10,0.0
11,0.0
12,0.0
13,0.0
14,4.706186359194066
15,-3.117063978436657
16,3.2584382357920278
17,-1.533961724383289
18,5.005568092416613
2,1, 1, 1, 0,18,30.00,45.00,Tuesday
7,-1.5499999999999999
8,0.0
9,0.0
10,0.0
11,0.0
12,0.0
13,0.0
14,4.66015529538987
15,-3.2689203478501249
16,3.1859653478056204
17,-1.6648791131233339
18,4.959319311637449
2,1, 1, 1, 0,18,45.00,60.00,Tuesday
7,-1.7
8,0.0
9,0.0
10,0.0
11,0.0
12,0.0
13,0.0
14,4.616401504305873
15,-3.4209493520905518
16,3.123742932672826
17,-1.7868655360293247
18,4.9166501947792649
2,1, 1, 1, 0,19, 0.00,15.00,Tuesday
7,-1.825
8,0.0
9,0.0
10,0.0
11,0.0
12,0.0
13,0.0
14,4.598774661923808
15,-3.267907650095467
16,3.0737685547210846
17,-1.8705379567506953
18,4.879452058197407
2,1, 1, 1, 0,19,15.00,30.00,Tuesday
7,-1.9500000000000002
8,0.0
9,0.0
10,0.0
11,0.0
12,0.0
13,0.0
14,4.580301132420513
15,-3.196878353230419
16,3.0274170358350149
17,-1.9672604814818442
18,4.849399203813743
2,1, 1, 1, 0,19,30.00,45.00,Tuesday
7,-2.075
8,0.0
9,0.0
10,0.0
11,0.0
12,0.0
13,0.0
14,4.556980836364053
15,-3.2695117449093304
16,2.9846079292128708
17,-2.0686857628959958
18,4.824883312100427
2,1, 1, 1, 0,19,45.00,60.00,Tuesday
7,-2.2
8,0.0
9,0.0
10,0.0
11,0.0
12,0.0
13,0.0
14,4.536788199172758
15,-3.243561306663361
16,2.941375760823746
17,-2.1719510251155045
18,4.80285302924558
2,1, 1, 1, 0,20, 0.00,15.00,Tuesday
7,-1.9250000000000003
8,0.0
9,0.0
10,0.0
11,0.0
12,0.0
13,0.0
14,4.5332250727331
15,-2.9414560297940026
16,2.9885933775844935
17,-1.958690349804101
18,4.783619617491326
2,1, 1, 1, 0,20,15.00,30.00,Tuesday
7,-1.6500000000000002
8,0.0
9,0.0
10,0.0
11,0.0
12,0.0
13,0.0
14,4.5294984166987
15,-2.642463216591686
16,3.0366598199498755
17,-1.732050718000778
18,4.767593684868631
2,1, 1, 1, 0,20,30.00,45.00,Tuesday
7,-1.375
8,0.0
9,0.0
10,0.0
11,0.0
12,0.0
13,0.0
14,4.5274739119046789
15,-2.34476602773059
16,3.0861851553961516
17,-1.5031113042736025
18,4.754367233921631
2,1, 1, 1, 0,20,45.00,60.00,Tuesday
7,-1.1
8,0.0
9,0.0
10,0.0
11,0.0
12,0.0
13,0.0
14,4.526969566226679
15,-2.0483745027644506
16,3.137671257051238
17,-1.2721919623539293
18,4.743268018000114
2,1, 1, 1, 0,21, 0.00,15.00,Tuesday
7,-1.25
8,0.0
9,0.0
10,0.0
11,0.0
12,0.0
13,0.0
14,4.483273058475771
15,-2.3332873604358439
16,3.0903226768160154
17,-1.3891977823554954
18,4.727593049763538
2,1, 1, 1, 0,21,15.00,30.00,Tuesday
7,-1.4
8,0.0
9,0.0
10,0.0
11,0.0
12,0.0
13,0.0
14,4.440793925513727
15,-2.551843593162719
16,3.0359207976813424
17,-1.5092694097912727
18,4.702639577047535
2,1, 1, 1, 0,21,30.00,45.00,Tuesday
7,-1.5499999999999999
8,0.0
9,0.0
10,0.0
11,0.0
12,0.0
13,0.0
14,4.384545136921408
15,-2.9011696231183237
16,2.9780396249159368
17,-1.6324341223033799
18,4.667334206295042
2,1, 1, 1, 0,21,45.00,60.00,Tuesday
7,-1.7
8,0.0
9,0.0
10,0.0
11,0.0
12,0.0
13,0.0
14,4.322895490826239
15,-3.3587985576601526
16,2.9106733721854427
17,-1.75983146066676
18,4.623708007402628
2,1, 1, 1, 0,22, 0.00,15.00,Tuesday
7,-1.5499999999999999
8,0.0
9,0.0
10,0.0
11,0.0
12,0.0
13,0.0
14,4.332440405865053
15,-2.864511746550252
16,2.9094329379478269
17,-1.6516127184842163
18,4.585595610506254
2,1, 1, 1, 0,22,15.00,30.00,Tuesday
7,-1.4
8,0.0
9,0.0
10,0.0
11,0.0
12,0.0
13,0.0
14,4.332320783201533
15,-2.5298106898016625
16,2.9328080806015466
17,-1.5295486139542618
18,4.560594125016943
2,1, 1, 1, 0,22,30.00,45.00,Tuesday
7,-1.25
8,0.0
9,0.0
10,0.0
11,0.0
12,0.0
13,0.0
14,4.329506110228859
15,-2.307674984488629
16,2.9565853376981297
17,-1.4094128389342018
18,4.546446034934266
2,1, 1, 1, 0,22,45.00,60.00,Tuesday
7,-1.1
8,0.0
9,0.0
10,0.0
11,0.0
12,0.0
13,0.0
14,4.3322888148151679
15,-2.0214324560753558
16,2.9853452648654299
17,-1.2793526142215797
18,4.538067755483038
2,1, 1, 1, 0,23, 0.00,15.00,Tuesday
7,-1.25
8,0.0
9,0.0
10,0.0
11,0.0
12,0.0
13,0.0
14,4.287466804864849
15,-2.32494850170543
16,2.8967431303912578
17,-1.5533600473639809
18,4.524944293917015
2,1, 1, 1, 0,23,15.00,30.00,Tuesday
7,-1.4
8,0.0
9,0.0
10,0.0
11,0.0
12,0.0
13,0.0
14,4.246230706586032
15,-2.629475044701493
16,2.7969357595295607
17,-1.844671056821653
18,4.501709266028815
2,1, 1, 1, 0,23,30.00,45.00,Tuesday
7,-1.5499999999999999
8,0.0
9,0.0
10,0.0
11,0.0
12,0.0
13,0.0
14,4.200497517275696
15,-2.934690414481707
16,2.6962036124713224
17,-2.136123275549153
18,4.469291917755673
2,1, 1, 1, 0,23,45.00,60.00,Tuesday
7,-1.7
8,0.0
9,0.0
10,0.0
11,0.0
12,0.0
13,0.0
14,4.150923118593862
15,-3.240246066034753
16,2.5918758203974336
17,-2.4280926746567959
18,4.4305797278108
2,1, 1, 1, 0,24, 0.00,15.00,Tuesday
7,-1.7
8,0.0
9,0.0
10,0.0
11,0.0
12,0.0
13,0.0
14,4.118803915421332
15,-3.294158656189865
16,2.5468690535341809
17,-2.489420968816546
18,4.391198067352953
2,1, 1, 1, 0,24,15.00,30.00,Tuesday
7,-1.7
8,0.0
9,0.0
10,0.0
11,0.0
12,0.0
13,0.0
14,4.083592653273152
15,-3.34878283572414
16,2.5060307367672296
17,-2.549430241585526
18,4.354170086656933
2,1, 1, 1, 0,24,30.00,45.00,Tuesday
7,-1.7
8,0.0
9,0.0
10,0.0
11,0.0
12,0.0
13,0.0
14,4.0493429218356289
15,-3.403260514424495
16,2.464705856313003
17,-2.6095691005183427
18,4.319537914132761
2,1, 1, 1, 0,24,45.00,60.00,Tuesday
7,-1.7
8,0.0
9,0.0
10,0.0
11,0.0
12,0.0
13,0.0
14,4.015828803328804
15,-3.457740992776516
16,2.424200115329427
17,-2.6694424291633824
18,4.286345786625719
End of Data
 Number of Records Written=        1152
