Program Version,EnergyPlus, Version 9.5.0-de239b2e5f, YMD=2022.11.01 22:08
1,5,Environment Title[],Latitude[deg],Longitude[deg],Time Zone[],Elevation[m]
2,8,Day of Simulation[],Month[],Day of Month[],DST Indicator[1=yes 0=no],Hour[],StartMinute[],EndMinute[],DayType
3,5,Cumulative Day of Simulation[],Month[],Day of Month[],DST Indicator[1=yes 0=no],DayType  ! When Daily Report Variables Requested
4,2,Cumulative Days of Simulation[],Month[]  ! When Monthly Report Variables Requested
5,1,Cumulative Days of Simulation[] ! When Run Period Report Variables Requested
6,1,Calendar Year of Simulation[] ! When Annual Report Variables Requested
7,1,Environment,Site Outdoor Air Drybulb Temperature [C] !TimeStep
8,1,ZONE ONE,Zone Windows Total Transmitted Solar Radiation Rate [W] !TimeStep
9,1,ZN001:WALL001,Surface Outside Face Sunlit Fraction [] !TimeStep
10,1,ZN001:WALL001,Surface Outside Face Incident Solar Radiation Rate per Area [W/m2] !TimeStep
11,1,ZN001:WALL001:WIN001,Surface Outside Face Sunlit Fraction [] !TimeStep
12,1,ZN001:WALL001:WIN001,Surface Outside Face Incident Solar Radiation Rate per Area [W/m2] !TimeStep
13,1,ZN001:WALL001:WIN001,Surface Window Transmitted Solar Radiation Rate [W] !TimeStep
14,1,ZN001:WALL001,Surface Inside Face Temperature [C] !TimeStep
15,1,ZN001:WALL001,Surface Outside Face Temperature [C] !TimeStep
16,1,ZN001:WALL001:WIN001,Surface Inside Face Temperature [C] !TimeStep
17,1,ZN001:WALL001:WIN001,Surface Outside Face Temperature [C] !TimeStep
18,1,ZONE ONE,Zone Mean Air Temperature [C] !TimeStep
End of Data Dictionary
1,RUN PERIOD 1,  41.98, -87.92,  -6.00, 201.00
2,1, 1, 1, 0, 1, 0.00,15.00,Tuesday
7,-4.324999999999999
8,0.0
9,0.0
10,0.0
11,0.0
12,0.0
13,0.0
14,1.4854490076265404
15,-5.976955990558879
16,-0.05127834151960542
17,-5.13249039036873
18,1.8313183442023267
2,1, 1, 1, 0, 1,15.00,30.00,Tuesday
7,-6.949999999999999
8,0.0
9,0.0
10,0.0
11,0.0
12,0.0
13,0.0
14,1.311538150054173
15,-8.444889805869359
16,-0.6699044382970101
17,-7.220212683244597
18,1.7476182739851376
2,1, 1, 1, 0, 1,30.00,45.00,Tuesday
7,-9.575
8,0.0
9,0.0
10,0.0
11,0.0
12,0.0
13,0.0
14,1.1167164600524689
15,-10.921276493158905
16,-1.2899579003013742
17,-9.314571788055787
18,1.6308301872722709
2,1, 1, 1, 0, 1,45.00,60.00,Tuesday
7,-12.2
8,0.0
9,0.0
10,0.0
11,0.0
12,0.0
13,0.0
14,0.9053726163241869
15,-13.404161525787409
16,-1.9236925114097404
17,-11.417236769330487
18,1.4900524377787717
2,1, 1, 1, 0, 2, 0.00,15.00,Tuesday
7,-12.075
8,0.0
9,0.0
10,0.0
11,0.0
12,0.0
13,0.0
14,0.8516156291426801
15,-13.205781728443359
16,-1.9847517426595687
17,-11.270601399970247
18,1.3625695343533562
2,1, 1, 1, 0, 2,15.00,30.00,Tuesday
7,-11.95
8,0.0
9,0.0
10,0.0
11,0.0
12,0.0
13,0.0
14,0.7819123804322906
15,-13.02849525254142
16,-2.0056776413478589
17,-11.12245064083237
18,1.2665310782958777
2,1, 1, 1, 0, 2,30.00,45.00,Tuesday
7,-11.825
8,0.0
9,0.0
10,0.0
11,0.0
12,0.0
13,0.0
14,0.7292423753599684
15,-12.849963921832205
16,-2.0220211457866528
17,-10.973985556654157
18,1.1977022466405403
2,1, 1, 1, 0, 2,45.00,60.00,Tuesday
7,-11.7
8,0.0
9,0.0
10,0.0
11,0.0
12,0.0
13,0.0
14,0.6879684141270835
15,-12.67149579497643
16,-2.025735692767171
17,-10.822843735965705
18,1.1455537319279017
2,1, 1, 1, 0, 3, 0.00,15.00,Tuesday
7,-11.549999999999999
8,0.0
9,0.0
10,0.0
11,0.0
12,0.0
13,0.0
14,0.6484002248081495
15,-12.54718853745155
16,-2.0222620647085138
17,-10.694292557091558
18,1.1010610013205089
2,1, 1, 1, 0, 3,15.00,30.00,Tuesday
7,-11.399999999999999
8,0.0
9,0.0
10,0.0
11,0.0
12,0.0
13,0.0
14,0.6123449569833697
15,-12.42432262502939
16,-2.019518661004497
17,-10.557751245659688
18,1.0594463466867499
2,1, 1, 1, 0, 3,30.00,45.00,Tuesday
7,-11.25
8,0.0
9,0.0
10,0.0
11,0.0
12,0.0
13,0.0
14,0.5773584172705178
15,-12.303073958734786
16,-2.0152568650289597
17,-10.4204943355777
18,1.0191037421748195
2,1, 1, 1, 0, 3,45.00,60.00,Tuesday
7,-11.1
8,0.0
9,0.0
10,0.0
11,0.0
12,0.0
13,0.0
14,0.5429373365858344
15,-12.183503857047148
16,-2.0103426299912146
17,-10.283505246351183
18,0.9796947997765579
2,1, 1, 1, 0, 4, 0.00,15.00,Tuesday
7,-11.1
8,0.0
9,0.0
10,0.0
11,0.0
12,0.0
13,0.0
14,0.5049715242107666
15,-12.15252683339894
16,-2.0516731736918247
17,-10.296984958117094
18,0.9403755676740723
2,1, 1, 1, 0, 4,15.00,30.00,Tuesday
7,-11.1
8,0.0
9,0.0
10,0.0
11,0.0
12,0.0
13,0.0
14,0.4674110726717077
15,-12.122749896347452
16,-2.087859438013652
17,-10.317522774417
18,0.9008031490686144
2,1, 1, 1, 0, 4,30.00,45.00,Tuesday
7,-11.1
8,0.0
9,0.0
10,0.0
11,0.0
12,0.0
13,0.0
14,0.42972311304935209
15,-12.094625433870453
16,-2.1233433399919479
17,-10.338086252481162
18,0.8610359910362991
2,1, 1, 1, 0, 4,45.00,60.00,Tuesday
7,-11.1
8,0.0
9,0.0
10,0.0
11,0.0
12,0.0
13,0.0
14,0.39197761176405507
15,-12.068019094929927
16,-2.158644371573871
17,-10.35803859963903
18,0.8212226467309677
2,1, 1, 1, 0, 5, 0.00,15.00,Tuesday
7,-10.975
8,0.0
9,0.0
10,0.0
11,0.0
12,0.0
13,0.0
14,0.3599412506718572
15,-11.94574814034036
16,-2.1596048565683079
17,-10.269184937841829
18,0.7824416258719728
2,1, 1, 1, 0, 5,15.00,30.00,Tuesday
7,-10.85
8,0.0
9,0.0
10,0.0
11,0.0
12,0.0
13,0.0
14,0.32808481769112515
15,-11.823576507045623
16,-2.16229084867706
17,-10.172569354141047
18,0.7451594250236482
2,1, 1, 1, 0, 5,30.00,45.00,Tuesday
7,-10.725
8,0.0
9,0.0
10,0.0
11,0.0
12,0.0
13,0.0
14,0.29716831933909
15,-11.701384687583828
16,-2.164733225706925
17,-10.075124216906659
18,0.7091905055459001
2,1, 1, 1, 0, 5,45.00,60.00,Tuesday
7,-10.6
8,0.0
9,0.0
10,0.0
11,0.0
12,0.0
13,0.0
14,0.26805643260554076
15,-11.579202842007499
16,-2.166441001975329
17,-9.977456176194324
18,0.674311129280837
2,1, 1, 1, 0, 6, 0.00,15.00,Tuesday
7,-10.6
8,0.0
9,0.0
10,0.0
11,0.0
12,0.0
13,0.0
14,0.22956596892942753
15,-11.580014567809537
16,-2.1951539599418199
17,-9.978968397405197
18,0.6388743112311079
2,1, 1, 1, 0, 6,15.00,30.00,Tuesday
7,-10.6
8,0.0
9,0.0
10,0.0
11,0.0
12,0.0
13,0.0
14,0.19282736722819675
15,-11.580659376979743
16,-2.226054577087268
17,-9.984258923277935
18,0.6020506170693842
2,1, 1, 1, 0, 6,30.00,45.00,Tuesday
7,-10.6
8,0.0
9,0.0
10,0.0
11,0.0
12,0.0
13,0.0
14,0.15541777973195099
15,-11.581393866339326
16,-2.2566321588442408
17,-9.99029287332121
18,0.5640765673478483
2,1, 1, 1, 0, 6,45.00,60.00,Tuesday
7,-10.6
8,0.0
9,0.0
10,0.0
11,0.0
12,0.0
13,0.0
14,0.11764654008514358
15,-11.582123896740729
16,-2.287536119796073
17,-9.99669764650264
18,0.5254677970377989
2,1, 1, 1, 0, 7, 0.00,15.00,Tuesday
7,-10.6
8,0.0
9,0.0
10,0.0
11,0.0
12,0.0
13,0.0
14,0.08202952537187006
15,-11.556590192746097
16,-2.3239965018630075
17,-10.01098912495604
18,0.48688030369710647
2,1, 1, 1, 0, 7,15.00,30.00,Tuesday
7,-10.6
8,0.0
9,0.0
10,0.0
11,0.0
12,0.0
13,0.0
14,0.04622567544501685
15,-11.532382517136148
16,-2.3568914149718696
17,-10.02676374182397
18,0.44875452583603067
2,1, 1, 1, 0, 7,30.00,45.00,Tuesday
7,-10.6
8,0.0
9,0.0
10,0.0
11,0.0
12,0.0
13,0.0
14,0.010667312087723261
15,-11.50939932945469
16,-2.3893928025837569
17,-10.042299535121174
18,0.41112720816007927
2,1, 1, 1, 0, 7,45.00,60.00,Tuesday
7,-10.6
8,0.0
9,0.0
10,0.0
11,0.0
12,0.0
13,0.0
14,-0.024606146886952956
15,-11.487568907962997
16,-2.421499673729727
17,-10.057302666290639
18,0.3738876665801666
2,1, 1, 1, 0, 8, 0.00,15.00,Tuesday
7,-10.45
8,0.0
9,0.0
10,0.0
11,0.0
12,0.0
13,0.0
14,-0.060817349274294978
15,-11.439891371147809
16,-2.434846758431604
17,-10.014271971674475
18,0.33658976936434556
2,1, 1, 1, 0, 8,15.00,30.00,Tuesday
7,-10.3
8,73.34534335206519
9,1.0
10,22.819555959623899
11,1.0
12,22.819555959623899
13,73.34534335206519
14,0.008276385642230032
15,-9.767113244062396
16,-2.0211366301762156
17,-9.615632288177835
18,0.31411267234170456
2,1, 1, 1, 0, 8,30.00,45.00,Tuesday
7,-10.15
8,362.1883365258958
9,1.0
10,109.75755355442667
11,1.0
12,109.75755355442667
13,362.1883365258958
14,0.36359037096889737
15,-3.408535041064755
16,-0.32313885409860179
17,-8.197847132861853
18,0.34676392573826106
2,1, 1, 1, 0, 8,45.00,60.00,Tuesday
7,-10.0
8,664.237802462307
9,1.0
10,195.8764694434918
11,1.0
12,195.8764694434918
13,664.237802462307
14,0.8201247891677815
15,3.0926540164363316
16,1.50081062900108
17,-6.801451347546788
18,0.4392381319868695
2,1, 1, 1, 0, 9, 0.00,15.00,Tuesday
7,-9.725
8,970.6958060072673
9,1.0
10,278.97248314719988
11,1.0
12,278.97248314719988
13,970.6958060072673
14,1.148082777885262
15,8.263267687766204
16,3.0927492401723954
17,-5.604847707505428
18,0.5799635182582932
2,1, 1, 1, 0, 9,15.00,30.00,Tuesday
7,-9.45
8,1298.9694259730509
9,1.0
10,364.91995730569456
11,1.0
12,364.91995730569456
13,1298.9694259730509
14,1.5207803049147387
15,13.34623767667485
16,4.662737722770544
17,-4.426688944490479
18,0.7608306346853663
2,1, 1, 1, 0, 9,30.00,45.00,Tuesday
7,-9.175
8,1522.7662569356813
9,1.0
10,420.35879993239237
11,1.0
12,420.35879993239237
13,1522.7662569356813
14,1.7731590327369025
15,16.105625966108599
16,5.687981598518775
17,-3.7150829521362427
18,0.9624211822464163
2,1, 1, 1, 0, 9,45.00,60.00,Tuesday
7,-8.9
8,1756.7569016446956
9,1.0
10,478.00138373643099
11,1.0
12,478.00138373643099
13,1756.7569016446956
14,2.071875329208326
15,19.10133929485667
16,6.719371994430219
17,-2.974270673945739
18,1.1758878067822297
2,1, 1, 1, 0,10, 0.00,15.00,Tuesday
7,-8.350000000000002
8,1997.1271790730885
9,1.0
10,536.9185644770597
11,1.0
12,536.9185644770597
13,1997.1271790730885
14,2.3108760461659014
15,20.22207044504031
16,7.775326765756063
17,-2.21935789718043
18,1.406609332612995
2,1, 1, 1, 0,10,15.00,30.00,Tuesday
7,-7.800000000000001
8,2246.567610769451
9,1.0
10,598.0969199229219
11,1.0
12,598.0969199229219
13,2246.567610769451
14,2.5753664485632776
15,21.477514042769234
16,8.854396786633402
17,-1.4668398367585383
18,1.65263621675798
2,1, 1, 1, 0,10,30.00,45.00,Tuesday
7,-7.25
8,2414.4322728862937
9,1.0
10,637.6133352894237
11,1.0
12,637.6133352894237
13,2414.4322728862937
14,2.7721110883489947
15,21.539403704264655
16,9.606055491536381
17,-0.9595176777269785
18,1.8994363692879115
2,1, 1, 1, 0,10,45.00,60.00,Tuesday
7,-6.7
8,2579.8453727895268
9,1.0
10,676.6412284283772
11,1.0
12,676.6412284283772
13,2579.8453727895268
14,2.985040750676604
15,21.70132368293667
16,10.333630988034998
17,-0.4560012051405806
18,2.138155749538505
2,1, 1, 1, 0,11, 0.00,15.00,Tuesday
7,-6.275
8,2742.1473551373594
9,1.0
10,715.0112779846514
11,1.0
12,715.0112779846514
13,2742.1473551373594
14,3.2746359678097369
15,23.7986605967588
16,11.102137381157889
17,0.30104351174975366
18,2.372709569394604
2,1, 1, 1, 0,11,15.00,30.00,Tuesday
7,-5.85
8,2900.423787504337
9,1.0
10,752.5077794605232
11,1.0
12,752.5077794605232
13,2900.423787504337
14,3.5501013728254877
15,25.73350307342512
16,11.85692147335385
17,1.0349568654992254
18,2.6081482399184399
2,1, 1, 1, 0,11,30.00,45.00,Tuesday
7,-5.425
8,2858.388165044743
9,1.0
10,742.5988714321785
11,1.0
12,742.5988714321785
13,2858.388165044743
14,3.7030411058528127
15,25.58527069416707
16,11.946892569050477
17,1.3083654643766068
18,2.8289236735924128
2,1, 1, 1, 0,11,45.00,60.00,Tuesday
7,-5.0
8,2795.6107495904004
9,1.0
10,727.8169025450712
11,1.0
12,727.8169025450712
13,2795.6107495904004
14,3.851952079646983
15,25.35571880537533
16,11.944092236535483
17,1.5442471407185963
18,3.024194832192792
2,1, 1, 1, 0,12, 0.00,15.00,Tuesday
7,-4.575
8,2686.8178938231355
9,1.0
10,700.3759009170325
11,1.0
12,700.3759009170325
13,2686.8178938231355
14,3.951365354038606
15,24.61282630995586
16,11.761720126604019
17,1.7016151822946882
18,3.1888543907099744
2,1, 1, 1, 0,12,15.00,30.00,Tuesday
7,-4.15
8,2602.9440241108225
9,1.0
10,681.6705029034473
11,1.0
12,681.6705029034473
13,2602.9440241108225
14,4.069209293335335
15,24.282072547622815
16,11.691387398619952
17,1.9440817473498556
18,3.3301565571469706
2,1, 1, 1, 0,12,30.00,45.00,Tuesday
7,-3.7249999999999998
8,2279.8032483482036
9,1.0
10,602.01865277251
11,1.0
12,602.01865277251
13,2279.8032483482036
14,3.9809334418710589
15,21.253595273793758
16,10.75277038620419
17,1.6207350408371895
18,3.4302149380710915
2,1, 1, 1, 0,12,45.00,60.00,Tuesday
7,-3.3
8,1858.7873123364294
9,1.0
10,493.55004396206007
11,1.0
12,493.55004396206007
13,1858.7873123364294
14,3.798052903242819
15,17.074751234109696
16,9.307313354733538
17,0.9991047208986856
18,3.4711966452176234
2,1, 1, 1, 0,13, 0.00,15.00,Tuesday
7,-3.0249999999999996
8,1526.1467895952692
9,1.0
10,412.335026418112
11,1.0
12,412.335026418112
13,1526.1467895952692
14,3.668256775029122
15,14.22972935315391
16,8.192474980834163
17,0.5762865692950072
18,3.465516532562155
2,1, 1, 1, 0,13,15.00,30.00,Tuesday
7,-2.75
8,1110.5483628442103
9,1.0
10,305.94037763660148
11,1.0
12,305.94037763660148
13,1110.5483628442103
14,3.412434031907649
15,10.055737130816514
16,6.640204096570756
17,-0.12222172321372682
18,3.417392008144144
2,1, 1, 1, 0,13,30.00,45.00,Tuesday
7,-2.475
8,1010.3492039075998
9,1.0
10,281.0763483922329
11,1.0
12,281.0763483922329
13,1010.3492039075998
14,3.39321534992714
15,9.5406078524761
16,6.29413471430496
17,-0.04073859717288997
18,3.3578748747957345
2,1, 1, 1, 0,13,45.00,60.00,Tuesday
7,-2.2
8,912.2196393336444
9,1.0
10,256.7721209415886
11,1.0
12,256.7721209415886
13,912.2196393336444
14,3.3628241980252029
15,8.935263351555337
16,5.9993982798803249
17,0.06368274790543183
18,3.308801358222865
2,1, 1, 1, 0,14, 0.00,15.00,Tuesday
7,-1.9250000000000003
8,743.0401234054209
9,1.0
10,210.73276284570657
11,1.0
12,210.73276284570657
13,743.0401234054209
14,3.257807811288752
15,7.3862666432962549
16,5.322933017897753
17,-0.09689497125816615
18,3.2657593733148055
2,1, 1, 1, 0,14,15.00,30.00,Tuesday
7,-1.6500000000000002
8,656.1562134393181
9,1.0
10,189.38488290342594
11,1.0
12,189.38488290342594
13,656.1562134393181
14,3.2325268336010648
15,6.978975324348641
16,5.031978383617627
17,-0.014255623961844322
18,3.228946163765676
2,1, 1, 1, 0,14,30.00,45.00,Tuesday
7,-1.375
8,626.9742949443921
9,1.0
10,179.3940297802914
11,1.0
12,179.3940297802914
13,626.9742949443921
14,3.235827521542592
15,7.100755058443257
16,4.9397576284831079
17,0.18869701339849599
18,3.20012588461421
2,1, 1, 1, 0,14,45.00,60.00,Tuesday
7,-1.1
8,596.9642645840935
9,1.0
10,169.43349014176136
11,1.0
12,169.43349014176136
13,596.9642645840935
14,3.2365147452090778
15,7.197783345427003
16,4.84548629587573
17,0.38961991438895895
18,3.178872932089788
2,1, 1, 1, 0,15, 0.00,15.00,Tuesday
7,-1.1
8,627.4572591441391
9,1.0
10,178.15692317953907
11,1.0
12,178.15692317953907
13,627.4572591441391
14,3.284749783395787
15,8.012436030951415
16,5.0038223988490249
17,0.5364268930941876
18,3.1677885784636574
2,1, 1, 1, 0,15,15.00,30.00,Tuesday
7,-1.1
8,589.2121662696902
9,1.0
10,166.40516310952945
11,1.0
12,166.40516310952945
13,589.2121662696902
14,3.249258467766786
15,7.648730259556508
16,4.816511186805542
17,0.44541880943199887
18,3.1607076728114427
2,1, 1, 1, 0,15,30.00,45.00,Tuesday
7,-1.1
8,494.8686671746639
9,1.0
10,140.8967369711617
11,1.0
12,140.8967369711617
13,494.8686671746639
14,3.161020949091038
15,6.440687562088891
16,4.3662102119211
17,0.16333846275028919
18,3.1451641620118875
2,1, 1, 1, 0,15,45.00,60.00,Tuesday
7,-1.1
8,405.48414811819796
9,1.0
10,116.57355796743004
11,1.0
12,116.57355796743004
13,405.48414811819796
14,3.0638630817222034
15,5.2272268157016399
16,3.912348248725948
17,-0.13261831765066746
18,3.1147103115740037
2,1, 1, 1, 0,16, 0.00,15.00,Tuesday
7,-1.1
8,320.35759232732257
9,1.0
10,93.14939272689483
11,1.0
12,93.14939272689483
13,320.35759232732257
14,2.975930853337801
15,4.172159958169073
16,3.4762159661576108
17,-0.365358823137683
18,3.0705089084984777
2,1, 1, 1, 0,16,15.00,30.00,Tuesday
7,-1.1
8,197.96738420177338
9,1.0
10,57.94047897402063
11,1.0
12,57.94047897402063
13,197.96738420177338
14,2.8138673503060507
15,2.04196374882547
16,2.7554923555797474
17,-0.8097703579323934
18,3.009484442734105
2,1, 1, 1, 0,16,30.00,45.00,Tuesday
7,-1.1
8,152.72573943084616
9,1.0
10,45.38251793443488
11,1.0
12,45.38251793443488
13,152.72573943084616
14,2.755085367504433
15,1.4245540682774716
16,2.4775806596414897
17,-0.9395323520382135
18,2.9394732431332795
2,1, 1, 1, 0,16,45.00,60.00,Tuesday
7,-1.1
8,106.14989104773994
9,1.0
10,32.02625108222755
11,1.0
12,32.02625108222755
13,106.14989104773994
14,2.664128959544611
15,0.5526402986059896
16,2.20068008322653
17,-1.0930618643388926
18,2.866734439640836
2,1, 1, 1, 0,17, 0.00,15.00,Tuesday
7,-1.1
8,58.050174946299097
9,1.0
10,17.762198626050539
11,1.0
12,17.762198626050539
13,58.050174946299097
14,2.544710194422006
15,-0.7104351751316096
16,1.86184817167441
17,-1.387862518199654
18,2.7884697910466906
2,1, 1, 1, 0,17,15.00,30.00,Tuesday
7,-1.1
8,0.0
9,0.0
10,0.0
11,0.0
12,0.0
13,0.0
14,2.3773697932587365
15,-2.552790559405591
16,1.4471962883198444
17,-1.7413561261984683
18,2.6937083871929774
2,1, 1, 1, 0,17,30.00,45.00,Tuesday
7,-1.1
8,0.0
9,0.0
10,0.0
11,0.0
12,0.0
13,0.0
14,2.3306438357900136
15,-2.6938081491058827
16,1.3574583325083723
17,-1.8005065196423403
18,2.599051774757023
2,1, 1, 1, 0,17,45.00,60.00,Tuesday
7,-1.1
8,0.0
9,0.0
10,0.0
11,0.0
12,0.0
13,0.0
14,2.269446933417599
15,-2.8941693378054689
16,1.298785723246624
17,-1.8652918172388127
18,2.518973150175953
2,1, 1, 1, 0,18, 0.00,15.00,Tuesday
7,-1.25
8,0.0
9,0.0
10,0.0
11,0.0
12,0.0
13,0.0
14,2.2198248851540756
15,-3.04080527289523
16,1.2178173328087497
17,-2.006036026139327
18,2.4560047733956398
2,1, 1, 1, 0,18,15.00,30.00,Tuesday
7,-1.4
8,0.0
9,0.0
10,0.0
11,0.0
12,0.0
13,0.0
14,2.1752301858046105
15,-3.1931564454803009
16,1.1497954515034508
17,-2.136056547255805
18,2.4061344393100705
2,1, 1, 1, 0,18,30.00,45.00,Tuesday
7,-1.5499999999999999
8,0.0
9,0.0
10,0.0
11,0.0
12,0.0
13,0.0
14,2.1351593942030346
15,-3.3448756830206318
16,1.0859630123206899
17,-2.265565703989182
18,2.3643315256991626
2,1, 1, 1, 0,18,45.00,60.00,Tuesday
7,-1.7
8,0.0
9,0.0
10,0.0
11,0.0
12,0.0
13,0.0
14,2.09854487028125
15,-3.4967647892486846
16,1.0253920947404823
17,-2.3941318702488845
18,2.327099248183033
2,1, 1, 1, 0,19, 0.00,15.00,Tuesday
7,-1.825
8,0.0
9,0.0
10,0.0
11,0.0
12,0.0
13,0.0
14,2.0887183947609047
15,-3.3350974092696679
16,0.9951080218943389
17,-2.421998523234322
18,2.296137642675655
2,1, 1, 1, 0,19,15.00,30.00,Tuesday
7,-1.9500000000000002
8,0.0
9,0.0
10,0.0
11,0.0
12,0.0
13,0.0
14,2.0786153237818234
15,-3.2563864242962339
16,0.9670930038894312
17,-2.471691286347209
18,2.2729065216454269
2,1, 1, 1, 0,19,30.00,45.00,Tuesday
7,-2.075
8,0.0
9,0.0
10,0.0
11,0.0
12,0.0
13,0.0
14,2.063389676358677
15,-3.326925118821607
16,0.9318733065057927
17,-2.5602581612527617
18,2.2556361781571807
2,1, 1, 1, 0,19,45.00,60.00,Tuesday
7,-2.2
8,0.0
9,0.0
10,0.0
11,0.0
12,0.0
13,0.0
14,2.0515334828836577
15,-3.2941769186907758
16,0.9056101229767819
17,-2.625528800176653
18,2.241313521562009
2,1, 1, 1, 0,20, 0.00,15.00,Tuesday
7,-1.9250000000000003
8,0.0
9,0.0
10,0.0
11,0.0
12,0.0
13,0.0
14,2.055680723445236
15,-2.99034816111518
16,0.9639645081975914
17,-2.395964836647636
18,2.229880448272235
2,1, 1, 1, 0,20,15.00,30.00,Tuesday
7,-1.6500000000000002
8,0.0
9,0.0
10,0.0
11,0.0
12,0.0
13,0.0
14,2.0604878784916695
15,-2.68977990154338
16,1.0227520939994293
17,-2.1584124226473024
18,2.221582251571634
2,1, 1, 1, 0,20,30.00,45.00,Tuesday
7,-1.375
8,0.0
9,0.0
10,0.0
11,0.0
12,0.0
13,0.0
14,2.0668273512412469
15,-2.3906211491574917
16,1.0831361768363195
17,-1.919214443988949
18,2.2160434068982508
2,1, 1, 1, 0,20,45.00,60.00,Tuesday
7,-1.1
8,0.0
9,0.0
10,0.0
11,0.0
12,0.0
13,0.0
14,2.0746350445462129
15,-2.0928347658338608
16,1.1453357943687479
17,-1.6785422560407142
18,2.212646690894948
2,1, 1, 1, 0,21, 0.00,15.00,Tuesday
7,-1.25
8,0.0
9,0.0
10,0.0
11,0.0
12,0.0
13,0.0
14,2.03695752818935
15,-2.384806210297446
16,1.090029572739354
17,-1.8341511571425145
18,2.2049641634832848
2,1, 1, 1, 0,21,15.00,30.00,Tuesday
7,-1.4
8,0.0
9,0.0
10,0.0
11,0.0
12,0.0
13,0.0
14,1.9999762441960159
15,-2.607054109456105
16,1.0349611125643037
17,-1.9755353884095258
18,2.1882002075929529
2,1, 1, 1, 0,21,30.00,45.00,Tuesday
7,-1.5499999999999999
8,0.0
9,0.0
10,0.0
11,0.0
12,0.0
13,0.0
14,1.9488405420675215
15,-2.9655463190108906
16,0.9663056022392311
17,-2.1507267026935326
18,2.1608296849367907
2,1, 1, 1, 0,21,45.00,60.00,Tuesday
7,-1.7
8,0.0
9,0.0
10,0.0
11,0.0
12,0.0
13,0.0
14,1.892440591585056
15,-3.4335537344547899
16,0.8842852955274339
17,-2.3570754350012637
18,2.1245038972127747
2,1, 1, 1, 0,22, 0.00,15.00,Tuesday
7,-1.5499999999999999
8,0.0
9,0.0
10,0.0
11,0.0
12,0.0
13,0.0
14,1.9098944477653373
15,-2.926887817536503
16,0.9114633891471158
17,-2.157159718267394
18,2.0930281224788596
2,1, 1, 1, 0,22,15.00,30.00,Tuesday
7,-1.4
8,0.0
9,0.0
10,0.0
11,0.0
12,0.0
13,0.0
14,1.9193196048326534
15,-2.5837175939889698
16,0.9582634243039365
17,-1.9908150970939005
18,2.0744549950553585
2,1, 1, 1, 0,22,30.00,45.00,Tuesday
7,-1.25
8,0.0
9,0.0
10,0.0
11,0.0
12,0.0
13,0.0
14,1.9262069467305035
15,-2.357806892197894
16,0.994853849013225
17,-1.847935737124999
18,2.067047719547524
2,1, 1, 1, 0,22,45.00,60.00,Tuesday
7,-1.1
8,0.0
9,0.0
10,0.0
11,0.0
12,0.0
13,0.0
14,1.9368524206390432
15,-2.064794688385361
16,1.0387699665961919
17,-1.669452940858605
18,2.065821603525548
2,1, 1, 1, 0,23, 0.00,15.00,Tuesday
7,-1.25
8,0.0
9,0.0
10,0.0
11,0.0
12,0.0
13,0.0
14,1.899617597650193
15,-2.368540540939441
16,0.9558713354820156
17,-1.9495075687026998
18,2.0607790288005187
2,1, 1, 1, 0,23,15.00,30.00,Tuesday
7,-1.4
8,0.0
9,0.0
10,0.0
11,0.0
12,0.0
13,0.0
14,1.8651213619246286
15,-2.67307093910588
16,0.8600174987908531
17,-2.2392230805195938
18,2.0463353602492186
2,1, 1, 1, 0,23,30.00,45.00,Tuesday
7,-1.5499999999999999
8,0.0
9,0.0
10,0.0
11,0.0
12,0.0
13,0.0
14,1.8248649723762336
15,-2.9782301035290654
16,0.7632921331589841
17,-2.5289035413264857
18,2.0226547580866218
2,1, 1, 1, 0,23,45.00,60.00,Tuesday
7,-1.7
8,0.0
9,0.0
10,0.0
11,0.0
12,0.0
13,0.0
14,1.7821148137335097
15,-3.2836495100084046
16,0.6627723900178353
17,-2.819217613205751
18,1.992209673779466
2,1, 1, 1, 0,24, 0.00,15.00,Tuesday
7,-1.7
8,0.0
9,0.0
10,0.0
11,0.0
12,0.0
13,0.0
14,1.7573080356210374
15,-3.337344160453169
16,0.6239035358042315
17,-2.8781556138682164
18,1.9604725561072818
2,1, 1, 1, 0,24,15.00,30.00,Tuesday
7,-1.7
8,0.0
9,0.0
10,0.0
11,0.0
12,0.0
13,0.0
14,1.7294059484271392
15,-3.391844017300458
16,0.5889910670180143
17,-2.9364898017331599
18,1.9306334066213769
2,1, 1, 1, 0,24,30.00,45.00,Tuesday
7,-1.7
8,0.0
9,0.0
10,0.0
11,0.0
12,0.0
13,0.0
14,1.7022025517819964
15,-3.446203661515033
16,0.5534635576060509
17,-2.995045988485572
18,1.902993597375739
2,1, 1, 1, 0,24,45.00,60.00,Tuesday
7,-1.7
8,0.0
9,0.0
10,0.0
11,0.0
12,0.0
13,0.0
14,1.6756189871064824
15,-3.5005624478499799
16,0.5185976239839079
17,-3.05338833552986
18,1.8767657498069082
End of Data
 Number of Records Written=        1152
