Program Version,EnergyPlus, Version 9.5.0-de239b2e5f, YMD=2022.11.01 22:08
1,5,Environment Title[],Latitude[deg],Longitude[deg],Time Zone[],Elevation[m]
2,8,Day of Simulation[],Month[],Day of Month[],DST Indicator[1=yes 0=no],Hour[],StartMinute[],EndMinute[],DayType
3,5,Cumulative Day of Simulation[],Month[],Day of Month[],DST Indicator[1=yes 0=no],DayType  ! When Daily Report Variables Requested
4,2,Cumulative Days of Simulation[],Month[]  ! When Monthly Report Variables Requested
5,1,Cumulative Days of Simulation[] ! When Run Period Report Variables Requested
6,1,Calendar Year of Simulation[] ! When Annual Report Variables Requested
7,1,Environment,Site Outdoor Air Drybulb Temperature [C] !TimeStep
8,1,ZONE ONE,Zone Windows Total Transmitted Solar Radiation Rate [W] !TimeStep
9,1,ZN001:WALL001,Surface Outside Face Sunlit Fraction [] !TimeStep
10,1,ZN001:WALL001,Surface Outside Face Incident Solar Radiation Rate per Area [W/m2] !TimeStep
11,1,ZN001:WALL001:WIN001,Surface Outside Face Sunlit Fraction [] !TimeStep
12,1,ZN001:WALL001:WIN001,Surface Outside Face Incident Solar Radiation Rate per Area [W/m2] !TimeStep
13,1,ZN001:WALL001:WIN001,Surface Window Transmitted Solar Radiation Rate [W] !TimeStep
14,1,ZN001:WALL001,Surface Inside Face Temperature [C] !TimeStep
15,1,ZN001:WALL001,Surface Outside Face Temperature [C] !TimeStep
16,1,ZN001:WALL001:WIN001,Surface Inside Face Temperature [C] !TimeStep
17,1,ZN001:WALL001:WIN001,Surface Outside Face Temperature [C] !TimeStep
18,1,ZONE ONE,Zone Mean Air Temperature [C] !TimeStep
End of Data Dictionary
1,RUN PERIOD 1,  41.98, -87.92,  -6.00, 201.00
2,1, 1, 1, 0, 1, 0.00,15.00,Tuesday
7,-4.324999999999999
8,0.0
9,0.0
10,0.0
11,0.0
12,0.0
13,0.0
14,0.36546228044677139
15,-5.997491731744522
16,-0.9631028904500454
17,-5.323022029399681
18,0.6808318466897285
2,1, 1, 1, 0, 1,15.00,30.00,Tuesday
7,-6.949999999999999
8,0.0
9,0.0
10,0.0
11,0.0
12,0.0
13,0.0
14,0.19328915552416785
15,-8.465448459570395
16,-1.5862498602616598
17,-7.410714623807735
18,0.6009488565996812
2,1, 1, 1, 0, 1,30.00,45.00,Tuesday
7,-9.575
8,0.0
9,0.0
10,0.0
11,0.0
12,0.0
13,0.0
14,0.0001994454673598229
15,-10.942077746932766
16,-2.2092954962562318
17,-9.505069537041664
18,0.4875467033895458
2,1, 1, 1, 0, 1,45.00,60.00,Tuesday
7,-12.2
8,0.0
9,0.0
10,0.0
11,0.0
12,0.0
13,0.0
14,-0.20936921236572338
15,-13.42518238363828
16,-2.8455259249703888
17,-11.607925718502202
18,0.3495654154162321
2,1, 1, 1, 0, 2, 0.00,15.00,Tuesday
7,-12.075
8,0.0
9,0.0
10,0.0
11,0.0
12,0.0
13,0.0
14,-0.2595682455316066
15,-13.22697344502656
16,-2.904659882836995
17,-11.464762181299193
18,0.22432000686027266
2,1, 1, 1, 0, 2,15.00,30.00,Tuesday
7,-11.95
8,0.0
9,0.0
10,0.0
11,0.0
12,0.0
13,0.0
14,-0.3261030968717615
15,-13.04962538678487
16,-2.9222817697561824
17,-11.315750974004346
18,0.1303122823661307
2,1, 1, 1, 0, 2,30.00,45.00,Tuesday
7,-11.825
8,0.0
9,0.0
10,0.0
11,0.0
12,0.0
13,0.0
14,-0.3757169728834389
15,-12.871019301256144
16,-2.935570651327396
17,-11.16640690405086
18,0.06368532117810789
2,1, 1, 1, 0, 2,45.00,60.00,Tuesday
7,-11.7
8,0.0
9,0.0
10,0.0
11,0.0
12,0.0
13,0.0
14,-0.41383208996199108
15,-12.692470223122653
16,-2.932499635443378
17,-11.024267778886838
18,0.014139566142384062
2,1, 1, 1, 0, 3, 0.00,15.00,Tuesday
7,-11.549999999999999
8,0.0
9,0.0
10,0.0
11,0.0
12,0.0
13,0.0
14,-0.4503233643344344
15,-12.568662011032656
16,-2.930253214833101
17,-10.889074561153393
18,-0.02746408722604847
2,1, 1, 1, 0, 3,15.00,30.00,Tuesday
7,-11.399999999999999
8,0.0
9,0.0
10,0.0
11,0.0
12,0.0
13,0.0
14,-0.48316693983999978
15,-12.446318164007085
16,-2.9258310906463977
17,-10.754406270525636
18,-0.06601372687004645
2,1, 1, 1, 0, 3,30.00,45.00,Tuesday
7,-11.25
8,0.0
9,0.0
10,0.0
11,0.0
12,0.0
13,0.0
14,-0.5148886603203003
15,-12.325617014148863
16,-2.919425558739249
17,-10.619882112311757
18,-0.10318460433488352
2,1, 1, 1, 0, 3,45.00,60.00,Tuesday
7,-11.1
8,0.0
9,0.0
10,0.0
11,0.0
12,0.0
13,0.0
14,-0.5460190471207941
15,-12.20662100144512
16,-2.9123180152939769
17,-10.48580088405663
18,-0.13935797825717589
2,1, 1, 1, 0, 4, 0.00,15.00,Tuesday
7,-11.1
8,0.0
9,0.0
10,0.0
11,0.0
12,0.0
13,0.0
14,-0.5806247064136619
15,-12.174922117671612
16,-2.9496737477538774
17,-10.495343053909096
18,-0.1753612296741701
2,1, 1, 1, 0, 4,15.00,30.00,Tuesday
7,-11.1
8,0.0
9,0.0
10,0.0
11,0.0
12,0.0
13,0.0
14,-0.6148184618197254
15,-12.144451474665909
16,-2.982170139191112
17,-10.511935549550401
18,-0.2115482459991116
2,1, 1, 1, 0, 4,30.00,45.00,Tuesday
7,-11.1
8,0.0
9,0.0
10,0.0
11,0.0
12,0.0
13,0.0
14,-0.6491172082640018
15,-12.115666710388823
16,-3.013987287474208
17,-10.528656332444826
18,-0.24788976909085973
2,1, 1, 1, 0, 4,45.00,60.00,Tuesday
7,-11.1
8,0.0
9,0.0
10,0.0
11,0.0
12,0.0
13,0.0
14,-0.6834660259834675
15,-12.08843259726833
16,-3.045633980454795
17,-10.544874372798802
18,-0.2842622429209564
2,1, 1, 1, 0, 5, 0.00,15.00,Tuesday
7,-10.975
8,0.0
9,0.0
10,0.0
11,0.0
12,0.0
13,0.0
14,-0.7111016811610246
15,-11.966077979132578
16,-3.043610386200271
17,-10.455367648668187
18,-0.31951005099748416
2,1, 1, 1, 0, 5,15.00,30.00,Tuesday
7,-10.85
8,0.0
9,0.0
10,0.0
11,0.0
12,0.0
13,0.0
14,-0.7395363062163113
15,-11.843864514796025
16,-3.04288497289474
17,-10.358094776374572
18,-0.3532173087000788
2,1, 1, 1, 0, 5,30.00,45.00,Tuesday
7,-10.725
8,0.0
9,0.0
10,0.0
11,0.0
12,0.0
13,0.0
14,-0.7669670734980387
15,-11.721592606794394
16,-3.042162870296579
17,-10.260063485066042
18,-0.38564417422973165
2,1, 1, 1, 0, 5,45.00,60.00,Tuesday
7,-10.6
8,0.0
9,0.0
10,0.0
11,0.0
12,0.0
13,0.0
14,-0.7936246910556187
15,-11.59933455992731
16,-3.040707506228557
17,-10.161803882999834
18,-0.4171536800390809
2,1, 1, 1, 0, 6, 0.00,15.00,Tuesday
7,-10.6
8,0.0
9,0.0
10,0.0
11,0.0
12,0.0
13,0.0
14,-0.8287182493096237
15,-11.600059753991508
16,-3.0669865146440999
17,-10.162603806480889
18,-0.44931769889918046
2,1, 1, 1, 0, 6,15.00,30.00,Tuesday
7,-10.6
8,0.0
9,0.0
10,0.0
11,0.0
12,0.0
13,0.0
14,-0.8622664468686287
15,-11.600650146095149
16,-3.095155177346271
17,-10.167256506704348
18,-0.4828684462133218
2,1, 1, 1, 0, 6,30.00,45.00,Tuesday
7,-10.6
8,0.0
9,0.0
10,0.0
11,0.0
12,0.0
13,0.0
14,-0.8964636132296984
15,-11.601322988431
16,-3.123017302478843
17,-10.172725422846668
18,-0.5175480089684615
2,1, 1, 1, 0, 6,45.00,60.00,Tuesday
7,-10.6
8,0.0
9,0.0
10,0.0
11,0.0
12,0.0
13,0.0
14,-0.9310170468294897
15,-11.60199185056405
16,-3.1511897652723634
17,-10.178581721763067
18,-0.552854415578736
2,1, 1, 1, 0, 7, 0.00,15.00,Tuesday
7,-10.6
8,0.0
9,0.0
10,0.0
11,0.0
12,0.0
13,0.0
14,-0.9633370601100159
15,-11.575876577960388
16,-3.1838279942359124
17,-10.189658782348943
18,-0.588126406142277
2,1, 1, 1, 0, 7,15.00,30.00,Tuesday
7,-10.6
8,0.0
9,0.0
10,0.0
11,0.0
12,0.0
13,0.0
14,-0.9958286375737089
15,-11.551117686148343
16,-3.2116235097981304
17,-10.201622251178265
18,-0.6228646768668013
2,1, 1, 1, 0, 7,30.00,45.00,Tuesday
7,-10.6
8,0.0
9,0.0
10,0.0
11,0.0
12,0.0
13,0.0
14,-1.028098472274462
15,-11.527608119967443
16,-3.242164757592775
17,-10.214211735853155
18,-0.6571499603861877
2,1, 1, 1, 0, 7,45.00,60.00,Tuesday
7,-10.6
8,0.0
9,0.0
10,0.0
11,0.0
12,0.0
13,0.0
14,-1.0600636126163004
15,-11.505278805851097
16,-3.26916145696066
17,-10.225422966790461
18,-0.6910223691024414
2,1, 1, 1, 0, 8, 0.00,15.00,Tuesday
7,-10.45
8,0.0
9,0.0
10,0.0
11,0.0
12,0.0
13,0.0
14,-1.093054175075102
15,-11.457986562741175
16,-3.2786725662236906
17,-10.19526918892086
18,-0.7249809215525028
2,1, 1, 1, 0, 8,15.00,30.00,Tuesday
7,-10.3
8,56.335446503768128
9,1.0
10,22.819555959623899
11,1.0
12,22.819555959623899
13,56.335446503768128
14,-1.0242109774532203
15,-9.785383233982067
16,-2.8774102979629676
17,-9.800008166726514
18,-0.7453267933317306
2,1, 1, 1, 0, 8,30.00,45.00,Tuesday
7,-10.15
8,278.1878143909356
9,1.0
10,109.75755355442667
11,1.0
12,109.75755355442667
13,278.1878143909356
14,-0.6789531229453366
15,-3.4299036317831939
16,-1.2104780356421543
17,-8.418732247823528
18,-0.7150616909425744
2,1, 1, 1, 0, 8,45.00,60.00,Tuesday
7,-10.0
8,510.1663302656163
9,1.0
10,195.8764694434918
11,1.0
12,195.8764694434918
13,510.1663302656163
14,-0.2487140225143125
15,3.0658854673904889
16,0.5690934617703647
17,-7.053398833721417
18,-0.6289359540788563
2,1, 1, 1, 0, 9, 0.00,15.00,Tuesday
7,-9.725
8,745.5102693222398
9,1.0
10,278.97248314719988
11,1.0
12,278.97248314719988
13,745.5102693222398
14,0.07005293436296634
15,8.246973582956406
16,2.129171838953937
17,-5.870037184877958
18,-0.4971229021603975
2,1, 1, 1, 0, 9,15.00,30.00,Tuesday
7,-9.45
8,997.582156188121
9,1.0
10,364.91995730569456
11,1.0
12,364.91995730569456
13,997.582156188121
14,0.4225076008031757
15,13.329088578825454
16,3.677216042993223
17,-4.699525123989815
18,-0.3270660446530009
2,1, 1, 1, 0, 9,30.00,45.00,Tuesday
7,-9.175
8,1169.391990237752
9,1.0
10,420.35879993239237
11,1.0
12,420.35879993239237
13,1169.391990237752
14,0.6587703448895169
15,16.089271538176534
16,4.692823556551275
17,-3.9855657620981335
18,-0.1372667727253677
2,1, 1, 1, 0, 9,45.00,60.00,Tuesday
7,-8.9
8,1349.0103097307909
9,1.0
10,478.00138373643099
11,1.0
12,478.00138373643099
13,1349.0103097307909
14,0.9388579772082931
15,19.085178337310987
16,5.715632951374118
17,-3.242835680546591
18,0.06430646513313782
2,1, 1, 1, 0,10, 0.00,15.00,Tuesday
7,-8.350000000000002
8,1533.5076978846005
9,1.0
10,536.9185644770597
11,1.0
12,536.9185644770597
13,1533.5076978846005
14,1.1575640118740123
15,20.207047647857004
16,6.76543501432127
17,-2.4734555698269675
18,0.2817325546755181
2,1, 1, 1, 0,10,15.00,30.00,Tuesday
7,-7.800000000000001
8,1724.9512689964277
9,1.0
10,598.0969199229219
11,1.0
12,598.0969199229219
13,1724.9512689964277
14,1.4001207493641706
15,21.463293790876884
16,7.83620515055793
17,-1.708593909055935
18,0.5122654926229632
2,1, 1, 1, 0,10,30.00,45.00,Tuesday
7,-7.25
8,1853.7472287192537
9,1.0
10,637.6133352894237
11,1.0
12,637.6133352894237
13,1853.7472287192537
14,1.5765494954112729
15,21.525938944068096
16,8.581371946630157
17,-1.187713265388993
18,0.7418739945265632
2,1, 1, 1, 0,10,45.00,60.00,Tuesday
7,-6.7
8,1980.655175721983
9,1.0
10,676.6412284283772
11,1.0
12,676.6412284283772
13,1980.655175721983
14,1.7673980560040863
15,21.688458020042643
16,9.302237785393232
17,-0.6720369814105425
18,0.9624067825666569
2,1, 1, 1, 0,11, 0.00,15.00,Tuesday
7,-6.275
8,2105.1728312427906
9,1.0
10,715.0112779846514
11,1.0
12,715.0112779846514
13,2105.1728312427906
14,2.035275703240358
15,23.785598779737648
16,10.060744318539492
17,0.08601452438358592
18,1.1778880069278679
2,1, 1, 1, 0,11,15.00,30.00,Tuesday
7,-5.85
8,2226.6022027673209
9,1.0
10,752.5077794605232
11,1.0
12,752.5077794605232
13,2226.6022027673209
14,2.288194318377393
15,25.720305489411986
16,10.805392224801608
17,0.8207314425684444
18,1.3933165369333936
2,1, 1, 1, 0,11,30.00,45.00,Tuesday
7,-5.425
8,2194.2899097806746
9,1.0
10,742.5988714321785
11,1.0
12,742.5988714321785
13,2194.2899097806746
14,2.424349954870754
15,25.57201780379796
16,10.881032547006726
17,1.093284311424668
18,1.5941851217408317
2,1, 1, 1, 0,11,45.00,60.00,Tuesday
7,-5.0
8,2146.0721368095848
9,1.0
10,727.8169025450712
11,1.0
12,727.8169025450712
13,2146.0721368095848
14,2.5569532299979929
15,25.342261376380756
16,10.864993582583509
17,1.3282097319594755
18,1.7706047659722657
2,1, 1, 1, 0,12, 0.00,15.00,Tuesday
7,-4.575
8,2062.538643322144
9,1.0
10,700.3759009170325
11,1.0
12,700.3759009170325
13,2062.538643322144
14,2.6435074564516665
15,24.59921468115564
16,10.672429533983064
17,1.4864939685537025
18,1.9182508576981353
2,1, 1, 1, 0,12,15.00,30.00,Tuesday
7,-4.15
8,1998.1587463614515
9,1.0
10,681.6705029034473
11,1.0
12,681.6705029034473
13,1998.1587463614515
14,2.747618044559207
15,24.268297437009129
16,10.587948546846576
17,1.7260380832279339
18,2.0439225885588985
2,1, 1, 1, 0,12,30.00,45.00,Tuesday
7,-3.7249999999999998
8,1750.1247511436703
9,1.0
10,602.01865277251
11,1.0
12,602.01865277251
13,1750.1247511436703
14,2.6573080202957968
15,21.239786967745038
16,9.637803161930038
17,1.4026045367729694
18,2.1313774300437595
2,1, 1, 1, 0,12,45.00,60.00,Tuesday
7,-3.3
8,1426.9426015329598
9,1.0
10,493.55004396206007
11,1.0
12,493.55004396206007
13,1426.9426015329598
14,2.478592985014735
15,17.060805319699499
16,8.196165586556959
17,0.7881363855802874
18,2.1660103365423728
2,1, 1, 1, 0,13, 0.00,15.00,Tuesday
7,-3.0249999999999996
8,1171.6318754714335
9,1.0
10,412.335026418112
11,1.0
12,412.335026418112
13,1171.6318754714335
14,2.354859865776871
15,14.215530354617887
16,7.077834773110453
17,0.3627921378941892
18,2.1573391124227969
2,1, 1, 1, 0,13,15.00,30.00,Tuesday
7,-2.75
8,852.6159973187268
9,1.0
10,305.94037763660148
11,1.0
12,305.94037763660148
13,852.6159973187268
14,2.1218753600497908
15,10.041466820972037
16,5.535496822618711
17,-0.33094948972757268
18,2.1065583643092529
2,1, 1, 1, 0,13,30.00,45.00,Tuesday
7,-2.475
8,775.7107094787302
9,1.0
10,281.0763483922329
11,1.0
12,281.0763483922329
13,775.7107094787302
14,2.1013249389586674
15,9.527288439205526
16,5.198814555756655
17,-0.2500063632725187
18,2.0460020499794608
2,1, 1, 1, 0,13,45.00,60.00,Tuesday
7,-2.2
8,700.39395608843
9,1.0
10,256.7721209415886
11,1.0
12,256.7721209415886
13,700.39395608843
14,2.0723064566287179
15,8.920581994669064
16,4.901011590066446
17,-0.1479898183520163
18,1.9969816788361206
2,1, 1, 1, 0,14, 0.00,15.00,Tuesday
7,-1.9250000000000003
8,570.5139869313455
9,1.0
10,210.73276284570657
11,1.0
12,210.73276284570657
13,570.5139869313455
14,1.9768359328873842
15,7.371441454668406
16,4.2356822549794519
17,-0.30618240684304967
18,1.9551772796914784
2,1, 1, 1, 0,14,15.00,30.00,Tuesday
7,-1.6500000000000002
8,503.8263921613619
9,1.0
10,189.38488290342594
11,1.0
12,189.38488290342594
13,503.8263921613619
14,1.9556978167751469
15,6.963991941570522
16,3.9484425593938115
17,-0.2280689629502035
18,1.9202735333024437
2,1, 1, 1, 0,14,30.00,45.00,Tuesday
7,-1.375
8,481.41722528202339
9,1.0
10,179.3940297802914
11,1.0
12,179.3940297802914
13,481.41722528202339
14,1.9612460095630835
15,7.083908415780692
16,3.862741032257418
17,-0.02614370948481337
18,1.8936781695914143
2,1, 1, 1, 0,14,45.00,60.00,Tuesday
7,-1.1
8,458.37585507877238
9,1.0
10,169.43349014176136
11,1.0
12,169.43349014176136
13,458.37585507877238
14,1.9631346019108703
15,7.180462807422138
16,3.7757812310297824
17,0.17366784303771966
18,1.8748927384012966
2,1, 1, 1, 0,15, 0.00,15.00,Tuesday
7,-1.1
8,481.79964533691546
9,1.0
10,178.15692317953907
11,1.0
12,178.15692317953907
13,481.79964533691546
14,2.0089365001940036
15,7.9941988829515469
16,3.930055236039493
17,0.313269752370843
18,1.865861346846397
2,1, 1, 1, 0,15,15.00,30.00,Tuesday
7,-1.1
8,452.44124829061959
9,1.0
10,166.40516310952945
11,1.0
12,166.40516310952945
13,452.44124829061959
14,1.9772648227783237
15,7.630421756867344
16,3.747320177203335
17,0.2202417234336167
18,1.8606210372845713
2,1, 1, 1, 0,15,30.00,45.00,Tuesday
7,-1.1
8,380.0095662752193
9,1.0
10,140.8967369711617
11,1.0
12,140.8967369711617
13,380.0095662752193
14,1.8952521339405054
15,6.422094859623072
16,3.308363419446266
17,-0.0706749305024914
18,1.8476472664894926
2,1, 1, 1, 0,15,45.00,60.00,Tuesday
7,-1.1
8,311.3807999352525
9,1.0
10,116.57355796743004
11,1.0
12,116.57355796743004
13,311.3807999352525
14,1.8077256284645394
15,5.209525113515874
16,2.8637944032504949
17,-0.360993330461838
18,1.8205954831213596
2,1, 1, 1, 0,16, 0.00,15.00,Tuesday
7,-1.1
8,246.0168804826315
9,1.0
10,93.14939272689483
11,1.0
12,93.14939272689483
13,246.0168804826315
14,1.719581331115873
15,4.1482236783673829
16,2.440529611231625
17,-0.5978033392805173
18,1.780683368732966
2,1, 1, 1, 0,16,15.00,30.00,Tuesday
7,-1.1
8,152.0330004930469
9,1.0
10,57.94047897402063
11,1.0
12,57.94047897402063
13,152.0330004930469
14,1.5657359909334168
15,2.0180638413083735
16,1.743907055666682
17,-1.0431951841663932
18,1.72546639396943
2,1, 1, 1, 0,16,30.00,45.00,Tuesday
7,-1.1
8,117.29132710676434
9,1.0
10,45.38251793443488
11,1.0
12,45.38251793443488
13,117.29132710676434
14,1.511944180181456
15,1.399172628019314
16,1.4605649041802736
17,-1.187527437904464
18,1.6624512190420189
2,1, 1, 1, 0,16,45.00,60.00,Tuesday
7,-1.1
8,81.5229552588388
9,1.0
10,32.02625108222755
11,1.0
12,32.02625108222755
13,81.5229552588388
14,1.4267302491912202
15,0.5246554875578114
16,1.1822369085974743
17,-1.3549847052943279
18,1.5973459102486106
2,1, 1, 1, 0,17, 0.00,15.00,Tuesday
7,-1.1
8,44.582687785210257
9,1.0
10,17.762198626050539
11,1.0
12,17.762198626050539
13,44.582687785210257
14,1.3131589891965239
15,-0.7418341438678823
16,0.8475985891615778
17,-1.6516194714621407
18,1.5274414440705647
2,1, 1, 1, 0,17,15.00,30.00,Tuesday
7,-1.1
8,0.0
9,0.0
10,0.0
11,0.0
12,0.0
13,0.0
14,1.15244683902538
15,-2.5854619703721486
16,0.44512803292383298
17,-1.9884878276326959
18,1.4423632589641616
2,1, 1, 1, 0,17,30.00,45.00,Tuesday
7,-1.1
8,0.0
9,0.0
10,0.0
11,0.0
12,0.0
13,0.0
14,1.1112409630181138
15,-2.7276463001850215
16,0.3571894925662491
17,-2.05946811123448
18,1.3528567455037679
2,1, 1, 1, 0,17,45.00,60.00,Tuesday
7,-1.1
8,0.0
9,0.0
10,0.0
11,0.0
12,0.0
13,0.0
14,1.0541726220945303
15,-2.930729393317381
16,0.29911436161438589
17,-2.136308806215254
18,1.2746607400338526
2,1, 1, 1, 0,18, 0.00,15.00,Tuesday
7,-1.25
8,0.0
9,0.0
10,0.0
11,0.0
12,0.0
13,0.0
14,1.0076213506007613
15,-3.0770682189783238
16,0.22152173803664255
17,-2.2764887515218676
18,1.2124484082303644
2,1, 1, 1, 0,18,15.00,30.00,Tuesday
7,-1.4
8,0.0
9,0.0
10,0.0
11,0.0
12,0.0
13,0.0
14,0.9656245022172549
15,-3.229428341311954
16,0.1552303020233694
17,-2.406740198856312
18,1.16350873700449
2,1, 1, 1, 0,18,30.00,45.00,Tuesday
7,-1.5499999999999999
8,0.0
9,0.0
10,0.0
11,0.0
12,0.0
13,0.0
14,0.9291514936335045
15,-3.3810912306859577
16,0.09290669242909644
17,-2.5365180162119147
18,1.1233415796202143
2,1, 1, 1, 0,18,45.00,60.00,Tuesday
7,-1.7
8,0.0
9,0.0
10,0.0
11,0.0
12,0.0
13,0.0
14,0.8943278028515559
15,-3.532991720593754
16,0.03639635813289033
17,-2.6594409277408888
18,1.0882598366615653
2,1, 1, 1, 0,19, 0.00,15.00,Tuesday
7,-1.825
8,0.0
9,0.0
10,0.0
11,0.0
12,0.0
13,0.0
14,0.8880890424808698
15,-3.3671199326664378
16,0.011508047781603637
17,-2.673809507189162
18,1.0597996940697894
2,1, 1, 1, 0,19,15.00,30.00,Tuesday
7,-1.9500000000000002
8,0.0
9,0.0
10,0.0
11,0.0
12,0.0
13,0.0
14,0.882786157070583
15,-3.284784212045602
16,-0.008675269927039153
17,-2.7049739009539737
18,1.0394498961073775
2,1, 1, 1, 0,19,30.00,45.00,Tuesday
7,-2.075
8,0.0
9,0.0
10,0.0
11,0.0
12,0.0
13,0.0
14,0.8705217624519835
15,-3.3543884997765467
16,-0.04030411849180382
17,-2.7881964579408988
18,1.0253091702495386
2,1, 1, 1, 0,19,45.00,60.00,Tuesday
7,-2.2
8,0.0
9,0.0
10,0.0
11,0.0
12,0.0
13,0.0
14,0.8625324320350235
15,-3.31834829953319
16,-0.059169475386511297
17,-2.8371890943532209
18,1.0143548840177366
2,1, 1, 1, 0,20, 0.00,15.00,Tuesday
7,-1.9250000000000003
8,0.0
9,0.0
10,0.0
11,0.0
12,0.0
13,0.0
14,0.8704449332950746
15,-3.0136799588711917
16,0.00436703597745236
17,-2.601055387248209
18,1.0063698569651317
2,1, 1, 1, 0,20,15.00,30.00,Tuesday
7,-1.6500000000000002
8,0.0
9,0.0
10,0.0
11,0.0
12,0.0
13,0.0
14,0.8790611528862542
15,-2.7123666073932966
16,0.06835795001870793
17,-2.358648434383781
18,1.0015022083997905
2,1, 1, 1, 0,20,30.00,45.00,Tuesday
7,-1.375
8,0.0
9,0.0
10,0.0
11,0.0
12,0.0
13,0.0
14,0.8890905180482437
15,-2.4124895380491648
16,0.13400952591956639
17,-2.114814153915404
18,0.9993636634347939
2,1, 1, 1, 0,20,45.00,60.00,Tuesday
7,-1.1
8,0.0
9,0.0
10,0.0
11,0.0
12,0.0
13,0.0
14,0.9013262443463797
15,-2.1140146206427214
16,0.20142433252510728
17,-1.8696984705417777
18,0.9994285453820666
2,1, 1, 1, 0,21, 0.00,15.00,Tuesday
7,-1.25
8,0.0
9,0.0
10,0.0
11,0.0
12,0.0
13,0.0
14,0.8679860310321638
15,-2.409448282863419
16,0.1422741894026558
17,-2.042594590171859
18,0.9956717812823106
2,1, 1, 1, 0,21,15.00,30.00,Tuesday
7,-1.4
8,0.0
9,0.0
10,0.0
11,0.0
12,0.0
13,0.0
14,0.8322248523838485
15,-2.6335442384793179
16,0.0872579629348138
17,-2.1930200681383669
18,0.9831147517502171
2,1, 1, 1, 0,21,30.00,45.00,Tuesday
7,-1.5499999999999999
8,0.0
9,0.0
10,0.0
11,0.0
12,0.0
13,0.0
14,0.7834641225960347
15,-2.9963268916290737
16,0.01358675194683201
17,-2.389509456304097
18,0.9598451160093648
2,1, 1, 1, 0,21,45.00,60.00,Tuesday
7,-1.7
8,0.0
9,0.0
10,0.0
11,0.0
12,0.0
13,0.0
14,0.7295396042832664
15,-3.4692364852717314
16,-0.07309547227998792
17,-2.6215444296166767
18,0.9272850214847577
2,1, 1, 1, 0,22, 0.00,15.00,Tuesday
7,-1.5499999999999999
8,0.0
9,0.0
10,0.0
11,0.0
12,0.0
13,0.0
14,0.7521998743104451
15,-2.9566494309755875
16,-0.03398940689169194
17,-2.392748193719058
18,0.8992357449691627
2,1, 1, 1, 0,22,15.00,30.00,Tuesday
7,-1.4
8,0.0
9,0.0
10,0.0
11,0.0
12,0.0
13,0.0
14,0.7652796086258124
15,-2.6095117192321806
16,0.01923839213810652
17,-2.198224090327585
18,0.8836826257196505
2,1, 1, 1, 0,22,30.00,45.00,Tuesday
7,-1.25
8,0.0
9,0.0
10,0.0
11,0.0
12,0.0
13,0.0
14,0.7765670202330184
15,-2.3817355355158176
16,0.06524025047724536
17,-2.0526663343545694
18,0.879199880034649
2,1, 1, 1, 0,22,45.00,60.00,Tuesday
7,-1.1
8,0.0
9,0.0
10,0.0
11,0.0
12,0.0
13,0.0
14,0.7915524051349165
15,-2.085457454603237
16,0.11838483643180098
17,-1.8562018708815913
18,0.881078758096002
2,1, 1, 1, 0,23, 0.00,15.00,Tuesday
7,-1.25
8,0.0
9,0.0
10,0.0
11,0.0
12,0.0
13,0.0
14,0.7587959522440169
15,-2.3894174547205626
16,0.036437436984442687
17,-2.136041424304665
18,0.8798490630897532
2,1, 1, 1, 0,23,15.00,30.00,Tuesday
7,-1.4
8,0.0
9,0.0
10,0.0
11,0.0
12,0.0
13,0.0
14,0.725591251563936
15,-2.69400878465526
16,-0.05781069047850451
17,-2.4250308761911016
18,0.8696769265956766
2,1, 1, 1, 0,23,30.00,45.00,Tuesday
7,-1.5499999999999999
8,0.0
9,0.0
10,0.0
11,0.0
12,0.0
13,0.0
14,0.6883830386312706
15,-2.9990566060851937
16,-0.1535740572803661
17,-2.714151598350668
18,0.8502937415816727
2,1, 1, 1, 0,23,45.00,60.00,Tuesday
7,-1.7
8,0.0
9,0.0
10,0.0
11,0.0
12,0.0
13,0.0
14,0.6487393246510692
15,-3.3044339218668878
16,-0.2524700119955696
17,-3.0037865177507685
18,0.8239437701607357
2,1, 1, 1, 0,24, 0.00,15.00,Tuesday
7,-1.7
8,0.0
9,0.0
10,0.0
11,0.0
12,0.0
13,0.0
14,0.6274453226362533
15,-3.358007377304319
16,-0.2885211287434686
17,-3.0616703235548359
18,0.7959620673363556
2,1, 1, 1, 0,24,15.00,30.00,Tuesday
7,-1.7
8,0.0
9,0.0
10,0.0
11,0.0
12,0.0
13,0.0
14,0.6030707311857563
15,-3.4124478511481035
16,-0.32064377175402117
17,-3.1192468055795645
18,0.7695983848052136
2,1, 1, 1, 0,24,30.00,45.00,Tuesday
7,-1.7
8,0.0
9,0.0
10,0.0
11,0.0
12,0.0
13,0.0
14,0.5792433613313687
15,-3.4667518841573585
16,-0.35345328464552497
17,-3.1770884075414189
18,0.7452933595589808
2,1, 1, 1, 0,24,45.00,60.00,Tuesday
7,-1.7
8,0.0
9,0.0
10,0.0
11,0.0
12,0.0
13,0.0
14,0.55595951206086
15,-3.5210532306283959
16,-0.38569648525776759
17,-3.23474307456587
18,0.7223632890737343
End of Data
 Number of Records Written=        1152
