Program Version,EnergyPlus, Version 9.5.0-de239b2e5f, YMD=2022.11.01 22:08
1,5,Environment Title[],Latitude[deg],Longitude[deg],Time Zone[],Elevation[m]
2,8,Day of Simulation[],Month[],Day of Month[],DST Indicator[1=yes 0=no],Hour[],StartMinute[],EndMinute[],DayType
3,5,Cumulative Day of Simulation[],Month[],Day of Month[],DST Indicator[1=yes 0=no],DayType  ! When Daily Report Variables Requested
4,2,Cumulative Days of Simulation[],Month[]  ! When Monthly Report Variables Requested
5,1,Cumulative Days of Simulation[] ! When Run Period Report Variables Requested
6,1,Calendar Year of Simulation[] ! When Annual Report Variables Requested
7,1,Environment,Site Outdoor Air Drybulb Temperature [C] !TimeStep
8,1,ZONE ONE,Zone Windows Total Transmitted Solar Radiation Rate [W] !TimeStep
9,1,ZN001:WALL001,Surface Outside Face Sunlit Fraction [] !TimeStep
10,1,ZN001:WALL001,Surface Outside Face Incident Solar Radiation Rate per Area [W/m2] !TimeStep
11,1,ZN001:WALL001:WIN001,Surface Outside Face Sunlit Fraction [] !TimeStep
12,1,ZN001:WALL001:WIN001,Surface Outside Face Incident Solar Radiation Rate per Area [W/m2] !TimeStep
13,1,ZN001:WALL001:WIN001,Surface Window Transmitted Solar Radiation Rate [W] !TimeStep
14,1,ZN001:WALL001,Surface Inside Face Temperature [C] !TimeStep
15,1,ZN001:WALL001,Surface Outside Face Temperature [C] !TimeStep
16,1,ZN001:WALL001:WIN001,Surface Inside Face Temperature [C] !TimeStep
17,1,ZN001:WALL001:WIN001,Surface Outside Face Temperature [C] !TimeStep
18,1,ZONE ONE,Zone Mean Air Temperature [C] !TimeStep
End of Data Dictionary
1,RUN PERIOD 1,  41.98, -87.92,  -6.00, 201.00
2,1, 1, 1, 0, 1, 0.00,15.00,Tuesday
7,-4.324999999999999
8,0.0
9,0.0
10,0.0
11,0.0
12,0.0
13,0.0
14,7.963485177796902
15,-5.8589663428843379
16,5.291673465315171
17,-4.0364598631648509
18,8.47404551020115
2,1, 1, 1, 0, 1,15.00,30.00,Tuesday
7,-6.949999999999999
8,0.0
9,0.0
10,0.0
11,0.0
12,0.0
13,0.0
14,7.77785351363323
15,-8.326025223782903
16,4.690619122211956
17,-6.123903182138633
18,8.369353118955806
2,1, 1, 1, 0, 1,30.00,45.00,Tuesday
7,-9.575
8,0.0
9,0.0
10,0.0
11,0.0
12,0.0
13,0.0
14,7.572017112308831
15,-10.801013598078292
16,4.082619879135564
17,-8.217467690931813
18,8.23337647744946
2,1, 1, 1, 0, 1,45.00,60.00,Tuesday
7,-12.2
8,0.0
9,0.0
10,0.0
11,0.0
12,0.0
13,0.0
14,7.350344182911351
15,-13.282641457799166
16,3.4594164004238339
17,-10.318530144091938
18,8.075986207748944
2,1, 1, 1, 0, 2, 0.00,15.00,Tuesday
7,-12.075
8,0.0
9,0.0
10,0.0
11,0.0
12,0.0
13,0.0
14,7.275250824644558
15,-13.083338869917368
16,3.3856304686448768
17,-10.156819279879983
18,7.934182758602349
2,1, 1, 1, 0, 2,15.00,30.00,Tuesday
7,-11.95
8,0.0
9,0.0
10,0.0
11,0.0
12,0.0
13,0.0
14,7.187138925643862
15,-12.906404746932
16,3.345455236104897
17,-10.013631801568636
18,7.824474383497417
2,1, 1, 1, 0, 2,30.00,45.00,Tuesday
7,-11.825
8,0.0
9,0.0
10,0.0
11,0.0
12,0.0
13,0.0
14,7.116275943362669
15,-12.728326244419299
16,3.3112144842808677
17,-9.869988967805285
18,7.740982520447152
2,1, 1, 1, 0, 2,45.00,60.00,Tuesday
7,-11.7
8,0.0
9,0.0
10,0.0
11,0.0
12,0.0
13,0.0
14,7.056483497191128
15,-12.550336612407215
16,3.2896746721525007
17,-9.723716424429995
18,7.672506786850546
2,1, 1, 1, 0, 3, 0.00,15.00,Tuesday
7,-11.549999999999999
8,0.0
9,0.0
10,0.0
11,0.0
12,0.0
13,0.0
14,6.998343422119729
15,-12.423131612770425
16,3.276549690940044
17,-9.572905005078951
18,7.610205554397769
2,1, 1, 1, 0, 3,15.00,30.00,Tuesday
7,-11.399999999999999
8,0.0
9,0.0
10,0.0
11,0.0
12,0.0
13,0.0
14,6.943237279211946
15,-12.297246342827853
16,3.26519323841967
17,-9.421839221354049
18,7.549867602070636
2,1, 1, 1, 0, 3,30.00,45.00,Tuesday
7,-11.25
8,0.0
9,0.0
10,0.0
11,0.0
12,0.0
13,0.0
14,6.888916319446033
15,-12.172824781923655
16,3.2555213760701919
17,-9.270490355211564
18,7.490372683953836
2,1, 1, 1, 0, 3,45.00,60.00,Tuesday
7,-11.1
8,0.0
9,0.0
10,0.0
11,0.0
12,0.0
13,0.0
14,6.835078366887933
15,-12.04992132068641
16,3.246473702313665
17,-9.119117496185482
18,7.431650396649055
2,1, 1, 1, 0, 4, 0.00,15.00,Tuesday
7,-11.1
8,0.0
9,0.0
10,0.0
11,0.0
12,0.0
13,0.0
14,6.777440701646523
15,-12.023143730618165
16,3.1863978576378715
17,-9.162849874444874
18,7.372803008585913
2,1, 1, 1, 0, 4,15.00,30.00,Tuesday
7,-11.1
8,0.0
9,0.0
10,0.0
11,0.0
12,0.0
13,0.0
14,6.720205738416393
15,-11.99739350097984
16,3.129576645093209
17,-9.205239242136713
18,7.313465104068033
2,1, 1, 1, 0, 4,30.00,45.00,Tuesday
7,-11.1
8,0.0
9,0.0
10,0.0
11,0.0
12,0.0
13,0.0
14,6.662774632546143
15,-11.973099595723982
16,3.07313343644455
17,-9.24654615237506
18,7.253773737781525
2,1, 1, 1, 0, 4,45.00,60.00,Tuesday
7,-11.1
8,0.0
9,0.0
10,0.0
11,0.0
12,0.0
13,0.0
14,6.60526700549251
15,-11.950133416628387
16,3.0168972422177946
17,-9.28670201549329
18,7.193975910265518
2,1, 1, 1, 0, 5, 0.00,15.00,Tuesday
7,-10.975
8,0.0
9,0.0
10,0.0
11,0.0
12,0.0
13,0.0
14,6.553358736623988
15,-11.828337736621119
16,2.998363118407724
17,-9.20172524911743
18,7.1353366967307789
2,1, 1, 1, 0, 5,15.00,30.00,Tuesday
7,-10.85
8,0.0
9,0.0
10,0.0
11,0.0
12,0.0
13,0.0
14,6.5016885886445519
15,-11.706600351033597
16,2.977531166124777
17,-9.10860091583288
18,7.07834856062807
2,1, 1, 1, 0, 5,30.00,45.00,Tuesday
7,-10.725
8,0.0
9,0.0
10,0.0
11,0.0
12,0.0
13,0.0
14,6.451085357829167
15,-11.58483939156121
16,2.9570054053516516
17,-9.014621997907057
18,7.0227643589912109
2,1, 1, 1, 0, 5,45.00,60.00,Tuesday
7,-10.6
8,0.0
9,0.0
10,0.0
11,0.0
12,0.0
13,0.0
14,6.401363883861317
15,-11.463087687670287
16,2.937313191430576
17,-8.920401798100443
18,6.968191242147835
2,1, 1, 1, 0, 6, 0.00,15.00,Tuesday
7,-10.6
8,0.0
9,0.0
10,0.0
11,0.0
12,0.0
13,0.0
14,6.344836808062383
15,-11.46417615643609
16,2.8890773582843396
17,-8.922890676761995
18,6.913012086807268
2,1, 1, 1, 0, 6,15.00,30.00,Tuesday
7,-10.6
8,0.0
9,0.0
10,0.0
11,0.0
12,0.0
13,0.0
14,6.288953823608783
15,-11.465223987015783
16,2.841954946898454
17,-8.931865894894372
18,6.856531216850671
2,1, 1, 1, 0, 6,30.00,45.00,Tuesday
7,-10.6
8,0.0
9,0.0
10,0.0
11,0.0
12,0.0
13,0.0
14,6.232545115243584
15,-11.466313489466654
16,2.7950241411170966
17,-8.941401320799742
18,6.799049964154582
2,1, 1, 1, 0, 6,45.00,60.00,Tuesday
7,-10.6
8,0.0
9,0.0
10,0.0
11,0.0
12,0.0
13,0.0
14,6.175849140366282
15,-11.467400173579462
16,2.7477467530167134
17,-8.951077255345468
18,6.741092353408754
2,1, 1, 1, 0, 7, 0.00,15.00,Tuesday
7,-10.6
8,0.0
9,0.0
10,0.0
11,0.0
12,0.0
13,0.0
14,6.121045833552335
15,-11.445231511051457
16,2.6927610057570066
17,-8.985581405126823
18,6.683299233884475
2,1, 1, 1, 0, 7,15.00,30.00,Tuesday
7,-10.6
8,0.0
9,0.0
10,0.0
11,0.0
12,0.0
13,0.0
14,6.06615474797143
15,-11.424212681219249
16,2.6398195320984998
17,-9.020400809707326
18,6.626001428170902
2,1, 1, 1, 0, 7,30.00,45.00,Tuesday
7,-10.6
8,0.0
9,0.0
10,0.0
11,0.0
12,0.0
13,0.0
14,6.011571109557522
15,-11.404265960843477
16,2.587376678100668
17,-9.054333547712531
18,6.56918133214774
2,1, 1, 1, 0, 7,45.00,60.00,Tuesday
7,-10.6
8,0.0
9,0.0
10,0.0
11,0.0
12,0.0
13,0.0
14,5.957298834762125
15,-11.385327499410345
16,2.535470200656164
17,-9.087222306567526
18,6.512730998005839
2,1, 1, 1, 0, 8, 0.00,15.00,Tuesday
7,-10.45
8,0.0
9,0.0
10,0.0
11,0.0
12,0.0
13,0.0
14,5.902612812981027
15,-11.33540671313753
16,2.5105018272008694
17,-9.032566347471857
18,6.456379415729175
2,1, 1, 1, 0, 8,15.00,30.00,Tuesday
7,-10.3
8,195.09020988822949
9,1.0
10,22.819555959623899
11,1.0
12,22.819555959623899
13,195.09020988822949
14,5.974895364620579
15,-9.661432658133661
16,2.7841349430970014
17,-8.715630203650278
18,6.419976838620163
2,1, 1, 1, 0, 8,30.00,45.00,Tuesday
7,-10.15
8,957.8948860166297
9,1.0
10,109.75755355442667
11,1.0
12,109.75755355442667
13,957.8948860166297
14,6.394176970315572
15,-3.2860002391465605
16,3.9653148304315666
17,-7.661560097302072
18,6.459103607303111
2,1, 1, 1, 0, 8,45.00,60.00,Tuesday
7,-10.0
8,1741.8290171577338
9,1.0
10,195.8764694434918
11,1.0
12,195.8764694434918
13,1741.8290171577338
14,6.923459886322496
15,3.1879715608741088
16,5.271109117959043
17,-6.614400724930306
18,6.581643635298935
2,1, 1, 1, 0, 9, 0.00,15.00,Tuesday
7,-9.725
8,2523.0629774479059
9,1.0
10,278.97248314719988
11,1.0
12,278.97248314719988
13,2523.0629774479059
14,7.3895044359567569
15,8.368730755945809
16,6.624384824158369
17,-5.671798430886611
18,6.762707693810917
2,1, 1, 1, 0, 9,15.00,30.00,Tuesday
7,-9.45
8,3346.573095888126
9,1.0
10,364.91995730569456
11,1.0
12,364.91995730569456
13,3346.573095888126
14,7.861387462614423
15,13.443240352275593
16,8.019318108117887
17,-4.719407355368105
18,6.99112969445416
2,1, 1, 1, 0, 9,30.00,45.00,Tuesday
7,-9.175
8,3891.4042612023224
9,1.0
10,420.35879993239237
11,1.0
12,420.35879993239237
13,3891.4042612023224
14,8.201982296288696
15,16.19997695324783
16,8.947376985641995
17,-4.134048463932231
18,7.24581763237945
2,1, 1, 1, 0, 9,45.00,60.00,Tuesday
7,-8.9
8,4456.983530562883
9,1.0
10,478.00138373643099
11,1.0
12,478.00138373643099
13,4456.983530562883
14,8.599659194054946
15,19.194130524032443
16,9.864214689967696
17,-3.5290956237655566
18,7.516050898838451
2,1, 1, 1, 0,10, 0.00,15.00,Tuesday
7,-8.350000000000002
8,5034.5118946064799
9,1.0
10,536.9185644770597
11,1.0
12,536.9185644770597
13,5034.5118946064799
14,8.947176683740653
15,20.308378498281134
16,10.81461171495937
17,-2.8756474463705787
18,7.80211745369704
2,1, 1, 1, 0,10,15.00,30.00,Tuesday
7,-7.800000000000001
8,5631.992129054266
9,1.0
10,598.0969199229219
11,1.0
12,598.0969199229219
13,5631.992129054266
14,9.326196237961789
15,21.55890615446269
16,11.781827978113939
17,-2.220425758914871
18,7.936312043977076
2,1, 1, 1, 0,10,30.00,45.00,Tuesday
7,-7.25
8,6023.946097425947
9,1.0
10,637.6133352894237
11,1.0
12,637.6133352894237
13,6023.946097425947
14,9.583655059179492
15,21.615082856301336
16,12.474412440591437
17,-1.7537649251607377
18,8.19609128546727
2,1, 1, 1, 0,10,45.00,60.00,Tuesday
7,-6.7
8,6410.126792028638
9,1.0
10,676.6412284283772
11,1.0
12,676.6412284283772
13,6410.126792028638
14,9.83372818431995
15,21.772270167963069
16,13.108242479072942
17,-1.2925051425806374
18,8.387955969421661
2,1, 1, 1, 0,11, 0.00,15.00,Tuesday
7,-6.275
8,6789.281875177929
9,1.0
10,715.0112779846514
11,1.0
12,715.0112779846514
13,6789.281875177929
14,10.233555890565484
15,23.8717671085625
16,13.809474867576455
17,-0.6129606761019204
18,8.834490854760995
2,1, 1, 1, 0,11,15.00,30.00,Tuesday
7,-5.85
8,7159.5121182088519
9,1.0
10,752.5077794605232
11,1.0
12,752.5077794605232
13,7159.5121182088519
14,10.68469276078862
15,25.808915506427348
16,14.562006366203264
17,0.0559449410425259
18,9.253881787770663
2,1, 1, 1, 0,11,30.00,45.00,Tuesday
7,-5.425
8,7049.480277607958
9,1.0
10,742.5988714321785
11,1.0
12,742.5988714321785
13,7049.480277607958
14,10.96054979174185
15,25.66084908188077
16,14.804399124869747
17,0.36834670278290107
18,9.640491314306644
2,1, 1, 1, 0,11,45.00,60.00,Tuesday
7,-5.0
8,6892.257609787937
9,1.0
10,727.8169025450712
11,1.0
12,727.8169025450712
13,6892.257609787937
14,11.221738023015817
15,25.432556792894123
16,14.94852250996712
17,0.6504104985189088
18,9.980673196707901
2,1, 1, 1, 0,12, 0.00,15.00,Tuesday
7,-4.575
8,6621.882258079946
9,1.0
10,700.3759009170325
11,1.0
12,700.3759009170325
13,6621.882258079946
14,11.408248487539569
15,24.690576101289403
16,14.945143469411164
17,0.8820395593298827
18,10.27269128791707
2,1, 1, 1, 0,12,15.00,30.00,Tuesday
7,-4.15
8,6421.36395776156
9,1.0
10,681.6705029034473
11,1.0
12,681.6705029034473
13,6421.36395776156
14,11.581992660411292
15,24.359944240883757
16,14.990773221744917
17,1.173476616633991
18,10.528072227240873
2,1, 1, 1, 0,12,30.00,45.00,Tuesday
7,-3.7249999999999998
8,5637.422751102329
9,1.0
10,602.01865277251
11,1.0
12,602.01865277251
13,5637.422751102329
14,11.527944117878447
15,21.332737308542247
16,14.370387714095557
17,1.0328237357923627
18,10.72230817054945
2,1, 1, 1, 0,12,45.00,60.00,Tuesday
7,-3.3
8,4604.1539752192179
9,1.0
10,493.55004396206007
11,1.0
12,493.55004396206007
13,4604.1539752192179
14,11.332206442406367
15,17.154811591271174
16,13.31268994892531
17,0.6584211661391919
18,10.82656515084697
2,1, 1, 1, 0,13, 0.00,15.00,Tuesday
7,-3.0249999999999996
8,3801.6324971623814
9,1.0
10,412.335026418112
11,1.0
12,412.335026418112
13,3801.6324971623814
14,11.198325153980063
15,14.31163827199803
16,12.45616816977747
17,0.4150213788723818
18,10.858646887989915
2,1, 1, 1, 0,13,15.00,30.00,Tuesday
7,-2.75
8,2784.34576820248
9,1.0
10,305.94037763660148
11,1.0
12,305.94037763660148
13,2784.34576820248
14,10.873142402465876
15,10.139152602519959
16,11.239027809467587
17,-0.03987291300740026
18,10.829278386970009
2,1, 1, 1, 0,13,30.00,45.00,Tuesday
7,-2.475
8,2542.0091242525506
9,1.0
10,281.0763483922329
11,1.0
12,281.0763483922329
13,2542.0091242525506
14,10.845627345368728
15,9.627649612063394
16,10.930311861894097
17,0.0980681233374412
18,10.78096831461299
2,1, 1, 1, 0,13,45.00,60.00,Tuesday
7,-2.2
8,2304.7206875324998
9,1.0
10,256.7721209415886
11,1.0
12,256.7721209415886
13,2304.7206875324998
14,10.807187800611504
15,9.021451759013884
16,10.704673235069436
17,0.26090516315980497
18,10.740193456168294
2,1, 1, 1, 0,14, 0.00,15.00,Tuesday
7,-1.9250000000000003
8,1882.7224008992999
9,1.0
10,210.73276284570657
11,1.0
12,210.73276284570657
13,1882.7224008992999
14,10.650523434814096
15,7.474833252646897
16,10.184271000425838
17,0.22273546215870966
18,10.70295832189934
2,1, 1, 1, 0,14,15.00,30.00,Tuesday
7,-1.6500000000000002
8,1672.46522537735
9,1.0
10,189.38488290342594
11,1.0
12,189.38488290342594
13,1672.46522537735
14,10.612089539297792
15,7.072437542933308
16,9.951502519749454
17,0.3662887070203169
18,10.668883431107569
2,1, 1, 1, 0,14,30.00,45.00,Tuesday
7,-1.375
8,1595.0585120267484
9,1.0
10,179.3940297802914
11,1.0
12,179.3940297802914
13,1595.0585120267484
14,10.598781475249514
15,7.196645628107986
16,9.90463190499679
17,0.610446059571359
18,10.639436382983773
2,1, 1, 1, 0,14,45.00,60.00,Tuesday
7,-1.1
8,1516.7674694229923
9,1.0
10,169.43349014176136
11,1.0
12,169.43349014176136
13,1516.7674694229923
14,10.58157405529041
15,7.297140576464559
16,9.850507155785977
17,0.8532250647886599
18,10.614089449012722
2,1, 1, 1, 0,15, 0.00,15.00,Tuesday
7,-1.1
8,1596.492918376359
9,1.0
10,178.15692317953907
11,1.0
12,178.15692317953907
13,1596.492918376359
14,10.64596464991448
15,8.116388808563272
16,9.968946432540179
17,0.984847722713539
18,10.597065742377638
2,1, 1, 1, 0,15,15.00,30.00,Tuesday
7,-1.1
8,1499.861251153344
9,1.0
10,166.40516310952945
11,1.0
12,166.40516310952945
13,1499.861251153344
14,10.591071165246154
15,7.754644212714968
16,9.842985844140799
17,0.9428105597536387
18,10.582723718875258
2,1, 1, 1, 0,15,30.00,45.00,Tuesday
7,-1.1
8,1264.6560579364328
9,1.0
10,140.8967369711617
11,1.0
12,140.8967369711617
13,1264.6560579364328
14,10.454557711582782
15,6.545051444716767
16,9.492352683322736
17,0.7515099348024705
18,10.560955060255893
2,1, 1, 1, 0,15,45.00,60.00,Tuesday
7,-1.1
8,1040.7088684399833
9,1.0
10,116.57355796743004
11,1.0
12,116.57355796743004
13,1040.7088684399833
14,10.345827099044703
15,5.345410610727717
16,9.139416697529896
17,0.5515523157959592
18,10.517415167511583
2,1, 1, 1, 0,16, 0.00,15.00,Tuesday
7,-1.1
8,825.9659354278377
9,1.0
10,93.14939272689483
11,1.0
12,93.14939272689483
13,825.9659354278377
14,10.230395475731842
15,4.296486613985085
16,8.827930757082754
17,0.43754348611463458
18,10.45148186595942
2,1, 1, 1, 0,16,15.00,30.00,Tuesday
7,-1.1
8,512.761149348933
9,1.0
10,57.94047897402063
11,1.0
12,57.94047897402063
13,512.761149348933
14,10.021046110513355
15,2.1765953264141197
16,8.344915178019506
17,0.18690960071268138
18,10.359356815601828
2,1, 1, 1, 0,16,30.00,45.00,Tuesday
7,-1.1
8,397.55738714622137
9,1.0
10,45.38251793443488
11,1.0
12,45.38251793443488
13,397.55738714622137
14,9.935650326955873
15,1.5708972681359986
16,8.12689560646163
17,0.16265875354514493
18,10.256922436796128
2,1, 1, 1, 0,16,45.00,60.00,Tuesday
7,-1.1
8,277.52139453000907
9,1.0
10,32.02625108222755
11,1.0
12,32.02625108222755
13,277.52139453000907
14,9.810816822363933
15,0.7133751742409518
16,7.926754649852796
17,0.1376115263549309
18,10.157085082959219
2,1, 1, 1, 0,17, 0.00,15.00,Tuesday
7,-1.1
8,152.2200962031368
9,1.0
10,17.762198626050539
11,1.0
12,17.762198626050539
13,152.2200962031368
14,9.662222889851396
15,-0.5300508926432381
16,7.675172128102986
17,0.0034866677041804907
18,10.0579695011998
2,1, 1, 1, 0,17,15.00,30.00,Tuesday
7,-1.1
8,0.0
9,0.0
10,0.0
11,0.0
12,0.0
13,0.0
14,9.463392313947369
15,-2.363607439199156
16,7.345288208911256
17,-0.25590538375848839
18,9.946175220284316
2,1, 1, 1, 0,17,30.00,45.00,Tuesday
7,-1.1
8,0.0
9,0.0
10,0.0
11,0.0
12,0.0
13,0.0
14,9.400554813919939
15,-2.4958068701697759
16,7.25819833765604
17,-0.22205216808879414
18,9.837120245179687
2,1, 1, 1, 0,17,45.00,60.00,Tuesday
7,-1.1
8,0.0
9,0.0
10,0.0
11,0.0
12,0.0
13,0.0
14,9.321495258707606
15,-2.680331303555126
16,7.212696525766603
17,-0.17384694355564535
18,9.745103470505292
2,1, 1, 1, 0,18, 0.00,15.00,Tuesday
7,-1.25
8,0.0
9,0.0
10,0.0
11,0.0
12,0.0
13,0.0
14,9.253956360423649
15,-2.829016725114408
16,7.116634831578722
17,-0.3172763681774313
18,9.670476628347503
2,1, 1, 1, 0,18,15.00,30.00,Tuesday
7,-1.4
8,0.0
9,0.0
10,0.0
11,0.0
12,0.0
13,0.0
14,9.192091104500403
15,-2.9814919529735315
16,7.037188035753161
17,-0.44571341104455089
18,9.607489227203973
2,1, 1, 1, 0,18,30.00,45.00,Tuesday
7,-1.5499999999999999
8,0.0
9,0.0
10,0.0
11,0.0
12,0.0
13,0.0
14,9.134413198785076
15,-3.1336056033705428
16,6.960172245713352
17,-0.5780445582670382
18,9.550569979775235
2,1, 1, 1, 0,18,45.00,60.00,Tuesday
7,-1.7
8,0.0
9,0.0
10,0.0
11,0.0
12,0.0
13,0.0
14,9.078660287439096
15,-3.2858873698292676
16,6.886097755576543
17,-0.7096217107820166
18,9.496374940149215
2,1, 1, 1, 0,19, 0.00,15.00,Tuesday
7,-1.825
8,0.0
9,0.0
10,0.0
11,0.0
12,0.0
13,0.0
14,9.046472008995652
15,-3.1485810034708718
16,6.793924805027245
17,-0.9024670218632878
18,9.44673771408481
2,1, 1, 1, 0,19,15.00,30.00,Tuesday
7,-1.9500000000000002
8,0.0
9,0.0
10,0.0
11,0.0
12,0.0
13,0.0
14,9.012961025087904
15,-3.091380336480457
16,6.718064477254643
17,-1.0794567214089739
18,9.40343887958166
2,1, 1, 1, 0,19,30.00,45.00,Tuesday
7,-2.075
8,0.0
9,0.0
10,0.0
11,0.0
12,0.0
13,0.0
14,8.975443638253483
15,-3.1677993815683189
16,6.661262637667335
17,-1.2047543526085747
18,9.365163243257248
2,1, 1, 1, 0,19,45.00,60.00,Tuesday
7,-2.2
8,0.0
9,0.0
10,0.0
11,0.0
12,0.0
13,0.0
14,8.940556579460376
15,-3.1539555779068095
16,6.589841656804424
17,-1.3722364392072564
18,9.328854109229449
2,1, 1, 1, 0,20, 0.00,15.00,Tuesday
7,-1.9250000000000003
8,0.0
9,0.0
10,0.0
11,0.0
12,0.0
13,0.0
14,8.921368621732137
15,-2.8548596540897259
16,6.62208770628456
17,-1.1737564545554733
18,9.295203034029017
2,1, 1, 1, 0,20,15.00,30.00,Tuesday
7,-1.6500000000000002
8,0.0
9,0.0
10,0.0
11,0.0
12,0.0
13,0.0
14,8.902587519154686
15,-2.558556359826958
16,6.65189501097899
17,-0.9636997152813365
18,9.264839731318878
2,1, 1, 1, 0,20,30.00,45.00,Tuesday
7,-1.375
8,0.0
9,0.0
10,0.0
11,0.0
12,0.0
13,0.0
14,8.885652850187089
15,-2.263441120216394
16,6.683343692635788
17,-0.7511927848966025
18,9.237370453738335
2,1, 1, 1, 0,20,45.00,60.00,Tuesday
7,-1.1
8,0.0
9,0.0
10,0.0
11,0.0
12,0.0
13,0.0
14,8.87032828558498
15,-1.9695030644082006
16,6.716893501382856
17,-0.5363735016906048
18,9.212063379839629
2,1, 1, 1, 0,21, 0.00,15.00,Tuesday
7,-1.25
8,0.0
9,0.0
10,0.0
11,0.0
12,0.0
13,0.0
14,8.816083364061666
15,-2.242080729711538
16,6.679017046791159
17,-0.5902591870151923
18,9.182208603225906
2,1, 1, 1, 0,21,15.00,30.00,Tuesday
7,-1.4
8,0.0
9,0.0
10,0.0
11,0.0
12,0.0
13,0.0
14,8.762604266855777
15,-2.454081937839951
16,6.623202391843279
17,-0.6758417480349408
18,9.143232035735816
2,1, 1, 1, 0,21,30.00,45.00,Tuesday
7,-1.5499999999999999
8,0.0
9,0.0
10,0.0
11,0.0
12,0.0
13,0.0
14,8.696385274290467
15,-2.7869967596104319
16,6.578257602300482
17,-0.716268815964554
18,9.094530649384657
2,1, 1, 1, 0,21,45.00,60.00,Tuesday
7,-1.7
8,0.0
9,0.0
10,0.0
11,0.0
12,0.0
13,0.0
14,8.624913434328612
15,-3.2257209561397857
16,6.534080219151065
17,-0.7244351781093883
18,9.038489269777934
2,1, 1, 1, 0,22, 0.00,15.00,Tuesday
7,-1.5499999999999999
8,0.0
9,0.0
10,0.0
11,0.0
12,0.0
13,0.0
14,8.61751573897506
15,-2.753663187920838
16,6.485967382215051
17,-0.7313462172356822
18,8.98817691185503
2,1, 1, 1, 0,22,15.00,30.00,Tuesday
7,-1.4
8,0.0
9,0.0
10,0.0
11,0.0
12,0.0
13,0.0
14,8.600815071957456
15,-2.433990217224858
16,6.47738033796611
17,-0.70508441353428
18,8.950611909320913
2,1, 1, 1, 0,22,30.00,45.00,Tuesday
7,-1.25
8,0.0
9,0.0
10,0.0
11,0.0
12,0.0
13,0.0
14,8.583616731043437
15,-2.2185966882582877
16,6.476585204543198
17,-0.6185637904982855
18,8.923358249124585
2,1, 1, 1, 0,22,45.00,60.00,Tuesday
7,-1.1
8,0.0
9,0.0
10,0.0
11,0.0
12,0.0
13,0.0
14,8.570299507835618
15,-1.9444852842296732
16,6.473043079859849
17,-0.55828082578563
18,8.901097547358232
2,1, 1, 1, 0,23, 0.00,15.00,Tuesday
7,-1.25
8,0.0
9,0.0
10,0.0
11,0.0
12,0.0
13,0.0
14,8.515229341462103
15,-2.2477220036728866
16,6.378603287930559
17,-0.8363887947965623
18,8.873418422701091
2,1, 1, 1, 0,23,15.00,30.00,Tuesday
7,-1.4
8,0.0
9,0.0
10,0.0
11,0.0
12,0.0
13,0.0
14,8.462325293357594
15,-2.552426916265021
16,6.272292733418055
17,-1.1276163124757659
18,8.835485191750758
2,1, 1, 1, 0,23,30.00,45.00,Tuesday
7,-1.5499999999999999
8,0.0
9,0.0
10,0.0
11,0.0
12,0.0
13,0.0
14,8.404568617570704
15,-2.857779038135976
16,6.163950966157699
17,-1.4203223667544763
18,8.78871451579083
2,1, 1, 1, 0,23,45.00,60.00,Tuesday
7,-1.7
8,0.0
9,0.0
10,0.0
11,0.0
12,0.0
13,0.0
14,8.342911923453578
15,-3.163475657787857
16,6.051434861745861
17,-1.7149615071728022
18,8.736203885310907
2,1, 1, 1, 0,24, 0.00,15.00,Tuesday
7,-1.7
8,0.0
9,0.0
10,0.0
11,0.0
12,0.0
13,0.0
14,8.296825966200265
15,-3.2177383618291146
16,5.994633818408715
17,-1.7833348096868349
18,8.683552981752639
2,1, 1, 1, 0,24,15.00,30.00,Tuesday
7,-1.7
8,0.0
9,0.0
10,0.0
11,0.0
12,0.0
13,0.0
14,8.248748621084433
15,-3.2725432167943988
16,5.942677706811423
17,-1.8471105078056667
18,8.633631057610998
2,1, 1, 1, 0,24,30.00,45.00,Tuesday
7,-1.7
8,0.0
9,0.0
10,0.0
11,0.0
12,0.0
13,0.0
14,8.201862303343909
15,-3.3272406065311967
16,5.890616002739421
17,-1.9105959448877457
18,8.58628596703847
2,1, 1, 1, 0,24,45.00,60.00,Tuesday
7,-1.7
8,0.0
9,0.0
10,0.0
11,0.0
12,0.0
13,0.0
14,8.155838298253496
15,-3.3819421387202386
16,5.839543147278619
17,-1.9736860622108453
18,8.54041974666272
End of Data
 Number of Records Written=        1152
