Program Version,EnergyPlus, Version 9.5.0-de239b2e5f, YMD=2022.11.01 22:08
1,5,Environment Title[],Latitude[deg],Longitude[deg],Time Zone[],Elevation[m]
2,8,Day of Simulation[],Month[],Day of Month[],DST Indicator[1=yes 0=no],Hour[],StartMinute[],EndMinute[],DayType
3,5,Cumulative Day of Simulation[],Month[],Day of Month[],DST Indicator[1=yes 0=no],DayType  ! When Daily Report Variables Requested
4,2,Cumulative Days of Simulation[],Month[]  ! When Monthly Report Variables Requested
5,1,Cumulative Days of Simulation[] ! When Run Period Report Variables Requested
6,1,Calendar Year of Simulation[] ! When Annual Report Variables Requested
7,1,Environment,Site Outdoor Air Drybulb Temperature [C] !TimeStep
8,1,ZONE ONE,Zone Windows Total Transmitted Solar Radiation Rate [W] !TimeStep
9,1,ZN001:WALL001,Surface Outside Face Sunlit Fraction [] !TimeStep
10,1,ZN001:WALL001,Surface Outside Face Incident Solar Radiation Rate per Area [W/m2] !TimeStep
11,1,ZN001:WALL001:WIN001,Surface Outside Face Sunlit Fraction [] !TimeStep
12,1,ZN001:WALL001:WIN001,Surface Outside Face Incident Solar Radiation Rate per Area [W/m2] !TimeStep
13,1,ZN001:WALL001:WIN001,Surface Window Transmitted Solar Radiation Rate [W] !TimeStep
14,1,ZN001:WALL001,Surface Inside Face Temperature [C] !TimeStep
15,1,ZN001:WALL001,Surface Outside Face Temperature [C] !TimeStep
16,1,ZN001:WALL001:WIN001,Surface Inside Face Temperature [C] !TimeStep
17,1,ZN001:WALL001:WIN001,Surface Outside Face Temperature [C] !TimeStep
18,1,ZONE ONE,Zone Mean Air Temperature [C] !TimeStep
End of Data Dictionary
1,RUN PERIOD 1,  41.98, -87.92,  -6.00, 201.00
2,1, 1, 1, 0, 1, 0.00,15.00,Tuesday
7,-4.324999999999999
8,0.0
9,0.0
10,0.0
11,0.0
12,0.0
13,0.0
14,1.111900199377481
15,-5.983795287745795
16,-0.35585645895434939
17,-5.19600394831798
18,1.4476425369790805
2,1, 1, 1, 0, 1,15.00,30.00,Tuesday
7,-6.949999999999999
8,0.0
9,0.0
10,0.0
11,0.0
12,0.0
13,0.0
14,0.938565938318397
15,-8.451746985140867
16,-0.9759146182474296
17,-7.2837165601357018
18,1.3652079928581467
2,1, 1, 1, 0, 1,30.00,45.00,Tuesday
7,-9.575
8,0.0
9,0.0
10,0.0
11,0.0
12,0.0
13,0.0
14,0.7443301011957617
15,-10.928213994718
16,-1.5969305264437708
17,-9.37808132060917
18,1.2495475148221885
2,1, 1, 1, 0, 1,45.00,60.00,Tuesday
7,-12.2
8,0.0
9,0.0
10,0.0
11,0.0
12,0.0
13,0.0
14,0.5335839179090636
15,-13.411172358773224
16,-2.2314692280220926
17,-11.480813547299875
18,1.1097083715463774
2,1, 1, 1, 0, 2, 0.00,15.00,Tuesday
7,-12.075
8,0.0
9,0.0
10,0.0
11,0.0
12,0.0
13,0.0
14,0.4810141220153609
15,-13.212849353797985
16,-2.291871377910411
17,-11.335294859811484
18,0.9829841191408013
2,1, 1, 1, 0, 2,15.00,30.00,Tuesday
7,-11.95
8,0.0
9,0.0
10,0.0
11,0.0
12,0.0
13,0.0
14,0.41236986800550959
15,-13.035542134492742
16,-2.311695591879811
17,-11.186857504675914
18,0.8876384048816696
2,1, 1, 1, 0, 2,30.00,45.00,Tuesday
7,-11.825
8,0.0
9,0.0
10,0.0
11,0.0
12,0.0
13,0.0
14,0.36072313160264088
15,-12.856985765797577
16,-2.327018440414122
17,-11.03810133266262
18,0.819558923450333
2,1, 1, 1, 0, 2,45.00,60.00,Tuesday
7,-11.7
8,0.0
9,0.0
10,0.0
11,0.0
12,0.0
13,0.0
14,0.32048852085287046
15,-12.678490578572259
16,-2.329727545809078
17,-10.886667660751641
18,0.7682716465930503
2,1, 1, 1, 0, 3, 0.00,15.00,Tuesday
7,-11.549999999999999
8,0.0
9,0.0
10,0.0
11,0.0
12,0.0
13,0.0
14,0.28195813898054269
15,-12.554350498441945
16,-2.3255722267998637
17,-10.75887986017483
18,0.7247425803152103
2,1, 1, 1, 0, 3,15.00,30.00,Tuesday
7,-11.399999999999999
8,0.0
9,0.0
10,0.0
11,0.0
12,0.0
13,0.0
14,0.24697441544760033
15,-12.431658431661843
16,-2.322111350906198
17,-10.623231951139929
18,0.6841603796628261
2,1, 1, 1, 0, 3,30.00,45.00,Tuesday
7,-11.25
8,0.0
9,0.0
10,0.0
11,0.0
12,0.0
13,0.0
14,0.2130813276939247
15,-12.310592204741753
16,-2.3171114589797527
17,-10.486900249181645
18,0.6448880512309385
2,1, 1, 1, 0, 3,45.00,60.00,Tuesday
7,-11.1
8,0.0
9,0.0
10,0.0
11,0.0
12,0.0
13,0.0
14,0.17976302399744654
15,-12.191213564809813
16,-2.311453718525968
17,-10.350867351323132
18,0.6065678986786405
2,1, 1, 1, 0, 4, 0.00,15.00,Tuesday
7,-11.1
8,0.0
9,0.0
10,0.0
11,0.0
12,0.0
13,0.0
14,0.1429218971687329
15,-12.159995607356287
16,-2.3514597387218147
17,-10.363046063035313
18,0.5683606257672438
2,1, 1, 1, 0, 4,15.00,30.00,Tuesday
7,-11.1
8,0.0
9,0.0
10,0.0
11,0.0
12,0.0
13,0.0
14,0.10648697336318347
15,-12.12998720980294
16,-2.3864156039811634
17,-10.382279813901278
18,0.5299207114270874
2,1, 1, 1, 0, 4,30.00,45.00,Tuesday
7,-11.1
8,0.0
9,0.0
10,0.0
11,0.0
12,0.0
13,0.0
14,0.06993107639089227
15,-12.101642451950255
16,-2.4206773600591307
17,-10.401572356481268
18,0.4912980414913748
2,1, 1, 1, 0, 4,45.00,60.00,Tuesday
7,-11.1
8,0.0
9,0.0
10,0.0
11,0.0
12,0.0
13,0.0
14,0.033319618193380928
15,-12.074826679025615
16,-2.4547607017824477
17,-10.42028887133489
18,0.4526335576515175
2,1, 1, 1, 0, 5, 0.00,15.00,Tuesday
7,-10.975
8,0.0
9,0.0
10,0.0
11,0.0
12,0.0
13,0.0
14,0.0024262361034560625
15,-11.95252788705632
16,-2.454723541363819
17,-10.331215944618009
18,0.4149936394384795
2,1, 1, 1, 0, 5,15.00,30.00,Tuesday
7,-10.85
8,0.0
9,0.0
10,0.0
11,0.0
12,0.0
13,0.0
14,-0.02828998946341591
15,-11.830331200581636
16,-2.4563725672257989
17,-10.23440449361965
18,0.37884305663274367
2,1, 1, 1, 0, 5,30.00,45.00,Tuesday
7,-10.725
8,0.0
9,0.0
10,0.0
11,0.0
12,0.0
13,0.0
14,-0.0570749441543184
15,-11.708114547704075
16,-2.4577812265868035
17,-10.136765152297585
18,0.34411882575346305
2,1, 1, 1, 0, 5,45.00,60.00,Tuesday
7,-10.6
8,0.0
9,0.0
10,0.0
11,0.0
12,0.0
13,0.0
14,-0.0860735140146374
15,-11.585941918447587
16,-2.458146643370924
17,-10.038828328557884
18,0.3104326928474822
2,1, 1, 1, 0, 6, 0.00,15.00,Tuesday
7,-10.6
8,0.0
9,0.0
10,0.0
11,0.0
12,0.0
13,0.0
14,-0.12334608702745123
15,-11.586696106208333
16,-2.4862047391121679
17,-10.040156442689636
18,0.27610402549654436
2,1, 1, 1, 0, 6,15.00,30.00,Tuesday
7,-10.6
8,0.0
9,0.0
10,0.0
11,0.0
12,0.0
13,0.0
14,-0.15901886624236043
15,-11.587325597688667
16,-2.516175879263983
17,-10.045222620052983
18,0.2403601797095064
2,1, 1, 1, 0, 6,30.00,45.00,Tuesday
7,-10.6
8,0.0
9,0.0
10,0.0
11,0.0
12,0.0
13,0.0
14,-0.19536099925994003
15,-11.588039685658858
16,-2.5458471749391835
17,-10.051067260576872
18,0.20346969565408896
2,1, 1, 1, 0, 6,45.00,60.00,Tuesday
7,-10.6
8,0.0
9,0.0
10,0.0
11,0.0
12,0.0
13,0.0
14,-0.23206447827038863
15,-11.58874944220657
16,-2.5758432045934116
17,-10.057290013809507
18,0.16595295533792962
2,1, 1, 1, 0, 7, 0.00,15.00,Tuesday
7,-10.6
8,0.0
9,0.0
10,0.0
11,0.0
12,0.0
13,0.0
14,-0.2665851002730345
15,-11.56302174952873
16,-2.611036249590711
17,-10.070517956220499
18,0.12846739784775747
2,1, 1, 1, 0, 7,15.00,30.00,Tuesday
7,-10.6
8,0.0
9,0.0
10,0.0
11,0.0
12,0.0
13,0.0
14,-0.3012930630934377
15,-11.538630169165831
16,-2.642757813457365
17,-10.08515792433974
18,0.09144838685583791
2,1, 1, 1, 0, 7,30.00,45.00,Tuesday
7,-10.6
8,0.0
9,0.0
10,0.0
11,0.0
12,0.0
13,0.0
14,-0.3357569467562083
15,-11.515471938337637
16,-2.674100621259413
17,-10.09958199973346
18,0.054928666347639727
2,1, 1, 1, 0, 7,45.00,60.00,Tuesday
7,-10.6
8,0.0
9,0.0
10,0.0
11,0.0
12,0.0
13,0.0
14,-0.36993802986074617
15,-11.493474828748902
16,-2.705059153334389
17,-10.113506077296279
18,0.01879577824321561
2,1, 1, 1, 0, 8, 0.00,15.00,Tuesday
7,-10.45
8,0.0
9,0.0
10,0.0
11,0.0
12,0.0
13,0.0
14,-0.4050914353337227
15,-11.445926235799373
16,-2.7177883291724358
17,-10.071219610252513
18,-0.01740559295653993
2,1, 1, 1, 0, 8,15.00,30.00,Tuesday
7,-10.3
8,67.6420307436779
9,1.0
10,22.819555959623899
11,1.0
12,22.819555959623899
13,67.6420307436779
14,-0.3360705508888945
15,-9.773207228956386
16,-2.3067482178565799
17,-9.676746016358607
18,-0.03916571745476009
2,1, 1, 1, 0, 8,30.00,45.00,Tuesday
7,-10.15
8,334.02467661361836
9,1.0
10,109.75755355442667
11,1.0
12,109.75755355442667
13,334.02467661361836
14,0.015903441506625209
15,-3.4156523732388548
16,-0.6178006276411452
17,-8.270196404057458
18,-0.007281206544029704
2,1, 1, 1, 0, 8,45.00,60.00,Tuesday
7,-10.0
8,612.5868637575647
9,1.0
10,195.8764694434918
11,1.0
12,195.8764694434918
13,612.5868637575647
14,0.46311832320379905
15,3.082934440618931
16,1.1929531275902719
17,-6.883075810337232
18,0.08312386528906124
2,1, 1, 1, 0, 9, 0.00,15.00,Tuesday
7,-9.725
8,895.2147819050712
9,1.0
10,278.97248314719988
11,1.0
12,278.97248314719988
13,895.2147819050712
14,0.7887119408257146
15,8.257955618496203
16,2.775158170863392
17,-5.690147875725643
18,0.22092131137695793
2,1, 1, 1, 0, 9,15.00,30.00,Tuesday
7,-9.45
8,1197.9619404728238
9,1.0
10,364.91995730569456
11,1.0
12,364.91995730569456
13,1197.9619404728238
14,1.1546382416176782
15,13.34050321838269
16,4.33874134245616
17,-4.513819165285895
18,0.39821897197848957
2,1, 1, 1, 0, 9,30.00,45.00,Tuesday
7,-9.175
8,1404.3563948227032
9,1.0
10,420.35879993239237
11,1.0
12,420.35879993239237
13,1404.3563948227032
14,1.4016802865361847
15,16.10017695652533
16,5.361297290581319
17,-3.8010622092145924
18,0.5959045464856688
2,1, 1, 1, 0, 9,45.00,60.00,Tuesday
7,-8.9
8,1620.1519949210779
9,1.0
10,478.00138373643099
11,1.0
12,478.00138373643099
13,1620.1519949210779
14,1.6942123310341549
15,19.095952479528508
16,6.3903282726926708
17,-3.059242522792374
18,0.8054031486518971
2,1, 1, 1, 0,10, 0.00,15.00,Tuesday
7,-8.350000000000002
8,1841.831149350552
9,1.0
10,536.9185644770597
11,1.0
12,536.9185644770597
13,1841.831149350552
14,1.9264474073405845
15,20.21706316431001
16,7.4446283375284
17,-2.299415726913196
18,1.0317004598807438
2,1, 1, 1, 0,10,15.00,30.00,Tuesday
7,-7.800000000000001
8,2071.8751654852046
9,1.0
10,598.0969199229219
11,1.0
12,598.0969199229219
13,2071.8751654852046
14,2.1836555461383826
15,21.472774636181769
16,8.521311409718124
17,-1.5427067079749577
18,1.2726087099653516
2,1, 1, 1, 0,10,30.00,45.00,Tuesday
7,-7.25
8,2226.6867202034588
9,1.0
10,637.6133352894237
11,1.0
12,637.6133352894237
13,2226.6867202034588
14,2.373668381626505
15,21.53491687374847
16,9.27098584154919
17,-1.0309520233312242
18,1.5137309846657348
2,1, 1, 1, 0,10,45.00,60.00,Tuesday
7,-6.7
8,2379.2373454744467
9,1.0
10,676.6412284283772
11,1.0
12,676.6412284283772
13,2379.2373454744467
14,2.5792786136665026
15,21.69703694129209
16,9.99650264646607
17,-0.5234650812718655
18,1.7464235872081043
2,1, 1, 1, 0,11, 0.00,15.00,Tuesday
7,-6.275
8,2528.9187727882397
9,1.0
10,715.0112779846514
11,1.0
12,715.0112779846514
13,2528.9187727882397
14,2.8616616651415325
15,23.794308453793783
16,10.761893791026126
17,0.2340646080708666
18,1.9746376349284177
2,1, 1, 1, 0,11,15.00,30.00,Tuesday
7,-5.85
8,2674.8876757192599
9,1.0
10,752.5077794605232
11,1.0
12,752.5077794605232
13,2674.8876757192599
14,3.1296333994030025
15,25.72910568773127
16,11.513500321437619
17,0.9683947149314918
18,2.2034145415838415
2,1, 1, 1, 0,11,30.00,45.00,Tuesday
7,-5.425
8,2636.1207310606735
9,1.0
10,742.5988714321785
11,1.0
12,742.5988714321785
13,2636.1207310606735
14,3.2769831438730838
15,25.58085483373295
16,11.598557428470315
17,1.2414203514539395
18,2.4175520468173374
2,1, 1, 1, 0,11,45.00,60.00,Tuesday
7,-5.0
8,2578.2248692095556
9,1.0
10,727.8169025450712
11,1.0
12,727.8169025450712
13,2578.2248692095556
14,3.42045330844294
15,25.351234702356114
16,11.591191408470764
17,1.4768761152419075
18,2.6065256761908226
2,1, 1, 1, 0,12, 0.00,15.00,Tuesday
7,-4.575
8,2477.891714326771
9,1.0
10,700.3759009170325
11,1.0
12,700.3759009170325
13,2477.891714326771
14,3.5155684778072464
15,24.60829061091945
16,11.405163505649114
17,1.634372154836683
18,2.7654911977699809
2,1, 1, 1, 0,12,15.00,30.00,Tuesday
7,-4.15
8,2400.5398523766186
9,1.0
10,681.6705029034473
11,1.0
12,681.6705029034473
13,2400.5398523766186
14,3.6288109331916167
15,24.27748209547473
16,11.329962129581418
17,1.8757595164036616
18,2.9015577445157918
2,1, 1, 1, 0,12,30.00,45.00,Tuesday
7,-3.7249999999999998
8,2102.526409536275
9,1.0
10,602.01865277251
11,1.0
12,602.01865277251
13,2102.526409536275
14,3.5401739184852638
15,21.248993410906647
16,10.386849636377349
17,1.5519342656591562
18,2.9974053902219097
2,1, 1, 1, 0,12,45.00,60.00,Tuesday
7,-3.3
8,1714.2485504965599
9,1.0
10,493.55004396206007
11,1.0
12,493.55004396206007
13,1714.2485504965599
14,3.358458757870683
15,17.070098864422
16,8.941848423011266
17,0.9320644844800086
18,3.0361356637741019
2,1, 1, 1, 0,13, 0.00,15.00,Tuesday
7,-3.0249999999999996
8,1407.4740582450059
9,1.0
10,412.335026418112
11,1.0
12,412.335026418112
13,1407.4740582450059
14,3.23061476091579
15,14.224999255710504
16,7.8251683774021789
17,0.5079669813644614
18,3.029302949311212
2,1, 1, 1, 0,13,15.00,30.00,Tuesday
7,-2.75
8,1024.1924445184343
9,1.0
10,305.94037763660148
11,1.0
12,305.94037763660148
13,1024.1924445184343
14,2.9829942446130057
15,10.050985295567552
16,6.275226009034554
17,-0.18958311402826667
18,2.9802451165507657
2,1, 1, 1, 0,13,30.00,45.00,Tuesday
7,-2.475
8,931.7847430949307
9,1.0
10,281.0763483922329
11,1.0
12,281.0763483922329
13,931.7847430949307
14,2.962532043725475
15,9.535239867252637
16,5.9322496537655529
17,-0.10838425517840733
18,2.9204394421888457
2,1, 1, 1, 0,13,45.00,60.00,Tuesday
7,-2.2
8,841.2857049772076
9,1.0
10,256.7721209415886
11,1.0
12,256.7721209415886
13,841.2857049772076
14,2.9325939597241015
15,8.93041709233147
16,5.6360350350544199
17,-0.004930100885758293
18,2.8714738084856914
2,1, 1, 1, 0,14, 0.00,15.00,Tuesday
7,-1.9250000000000003
8,685.2615390982447
9,1.0
10,210.73276284570657
11,1.0
12,210.73276284570657
13,685.2615390982447
14,2.8307841619735378
15,7.381350298559026
16,4.962821595883781
17,-0.16498368686382038
18,2.8289021267588865
2,1, 1, 1, 0,14,15.00,30.00,Tuesday
7,-1.6500000000000002
8,605.133696750503
9,1.0
10,189.38488290342594
11,1.0
12,189.38488290342594
13,605.133696750503
14,2.806225016230623
15,6.972553790078224
16,4.672965068517328
17,-0.08393760145190754
18,2.792724611106473
2,1, 1, 1, 0,14,30.00,45.00,Tuesday
7,-1.375
8,578.2209557667773
9,1.0
10,179.3940297802914
11,1.0
12,179.3940297802914
13,578.2209557667773
14,2.810722689747121
15,7.0952303705522559
16,4.582792697839579
17,0.11863339180115418
18,2.764622268074564
2,1, 1, 1, 0,14,45.00,60.00,Tuesday
7,-1.1
8,550.5444966559435
9,1.0
10,169.43349014176136
11,1.0
12,169.43349014176136
13,550.5444966559435
14,2.8119702220736988
15,7.192009722808966
16,4.490774639011477
17,0.3191379328916355
18,2.7441872268334355
2,1, 1, 1, 0,15, 0.00,15.00,Tuesday
7,-1.1
8,578.6663648104139
9,1.0
10,178.15692317953907
11,1.0
12,178.15692317953907
13,578.6663648104139
14,2.8593489013041295
15,8.00633512421437
16,4.647941120911753
17,0.4636770917070976
18,2.7338202001366107
2,1, 1, 1, 0,15,15.00,30.00,Tuesday
7,-1.1
8,543.3951992561138
9,1.0
10,166.40516310952945
11,1.0
12,166.40516310952945
13,543.3951992561138
14,2.8251563579808875
15,7.642629641864453
16,4.462057965440636
17,0.3719596186725198
18,2.727381965866887
2,1, 1, 1, 0,15,30.00,45.00,Tuesday
7,-1.1
8,456.38782326488117
9,1.0
10,140.8967369711617
11,1.0
12,140.8967369711617
13,456.38782326488117
14,2.739057632977838
15,6.434505057961333
16,4.016772917389858
17,0.08183628667268295
18,2.7127045937740608
2,1, 1, 1, 0,15,45.00,60.00,Tuesday
7,-1.1
8,373.9538184639095
9,1.0
10,116.57355796743004
11,1.0
12,116.57355796743004
13,373.9538184639095
14,2.645465748089607
15,5.221637311633911
16,3.5646782203744467
17,-0.20789324740206895
18,2.6833665446437875
2,1, 1, 1, 0,16, 0.00,15.00,Tuesday
7,-1.1
8,295.4466789409788
9,1.0
10,93.14939272689483
11,1.0
12,93.14939272689483
13,295.4466789409788
14,2.5568308369949275
15,4.164410545484994
16,3.132692073310352
17,-0.44162072867226245
18,2.640640467255172
2,1, 1, 1, 0,16,15.00,30.00,Tuesday
7,-1.1
8,182.57349787203217
9,1.0
10,57.94047897402063
11,1.0
12,57.94047897402063
13,182.57349787203217
14,2.3976954862998949
15,2.034037503916717
16,2.4167402231698817
17,-0.8875023002638045
18,2.5816204382106955
2,1, 1, 1, 0,16,30.00,45.00,Tuesday
7,-1.1
8,140.84983026582044
9,1.0
10,45.38251793443488
11,1.0
12,45.38251793443488
13,140.84983026582044
14,2.340506863233162
15,1.4160900256147587
16,2.138176803776105
17,-1.02142504587556
18,2.5139974088713514
2,1, 1, 1, 0,16,45.00,60.00,Tuesday
7,-1.1
8,97.89570633299269
9,1.0
10,32.02625108222755
11,1.0
12,32.02625108222755
13,97.89570633299269
14,2.251504760435472
15,0.5433195318104664
16,1.8606814413616917
17,-1.1801836806212123
18,2.4438390034103079
2,1, 1, 1, 0,17, 0.00,15.00,Tuesday
7,-1.1
8,53.536210193242769
9,1.0
10,17.762198626050539
11,1.0
12,17.762198626050539
13,53.536210193242769
14,2.134061662533397
15,-0.7208914333867535
16,1.5230743150870013
17,-1.476240755722074
18,2.3684071394742465
2,1, 1, 1, 0,17,15.00,30.00,Tuesday
7,-1.1
8,0.0
9,0.0
10,0.0
11,0.0
12,0.0
13,0.0
14,1.968948689479952
15,-2.563679016013744
16,1.1123491791498737
17,-1.824288168688554
18,2.2766808378201626
2,1, 1, 1, 0,17,30.00,45.00,Tuesday
7,-1.1
8,0.0
9,0.0
10,0.0
11,0.0
12,0.0
13,0.0
14,1.9240300628926508
15,-2.70510323972051
16,1.0231397039251534
17,-1.8875312903236364
18,2.1836197084533857
2,1, 1, 1, 0,17,45.00,60.00,Tuesday
7,-1.1
8,0.0
9,0.0
10,0.0
11,0.0
12,0.0
13,0.0
14,1.8641553852015896
15,-2.906371816389952
16,0.9645945195512695
17,-1.9565542116986308
18,2.1040614411102664
2,1, 1, 1, 0,18, 0.00,15.00,Tuesday
7,-1.25
8,0.0
9,0.0
10,0.0
11,0.0
12,0.0
13,0.0
14,1.8155111294215539
15,-3.0529101036348704
16,0.8847360376801134
17,-2.0971014649377937
18,2.0412712256734668
2,1, 1, 1, 0,18,15.00,30.00,Tuesday
7,-1.4
8,0.0
9,0.0
10,0.0
11,0.0
12,0.0
13,0.0
14,1.7717502946501285
15,-3.205264197520945
16,0.8172541462311074
17,-2.227226081289359
18,1.9916790044499496
2,1, 1, 1, 0,18,30.00,45.00,Tuesday
7,-1.5499999999999999
8,0.0
9,0.0
10,0.0
11,0.0
12,0.0
13,0.0
14,1.7335494079938563
15,-3.356964130388618
16,0.7539077964275975
17,-2.3568438014061714
18,1.950493389015076
2,1, 1, 1, 0,18,45.00,60.00,Tuesday
7,-1.7
8,0.0
9,0.0
10,0.0
11,0.0
12,0.0
13,0.0
14,1.696837154190538
15,-3.508906480172307
16,0.6941979276436996
17,-2.485415098969497
18,1.914047320029778
2,1, 1, 1, 0,19, 0.00,15.00,Tuesday
7,-1.825
8,0.0
9,0.0
10,0.0
11,0.0
12,0.0
13,0.0
14,1.6882804179658114
15,-3.345776603634173
16,0.6663403303660971
17,-2.5066489463657719
18,1.8839374098252038
2,1, 1, 1, 0,19,15.00,30.00,Tuesday
7,-1.9500000000000002
8,0.0
9,0.0
10,0.0
11,0.0
12,0.0
13,0.0
14,1.679501075907569
15,-3.2658602264680769
16,0.6409474744825729
17,-2.5499547531806
18,1.8616352356145055
2,1, 1, 1, 0,19,30.00,45.00,Tuesday
7,-2.075
8,0.0
9,0.0
10,0.0
11,0.0
12,0.0
13,0.0
14,1.6655097842041083
15,-3.336071483256747
16,0.6068418827049982
17,-2.6367192067651787
18,1.8453850596946425
2,1, 1, 1, 0,19,45.00,60.00,Tuesday
7,-2.2
8,0.0
9,0.0
10,0.0
11,0.0
12,0.0
13,0.0
14,1.6549262487039594
15,-3.302241085170647
16,0.5831264433214187
17,-2.6964487427482028
18,1.8321883307136469
2,1, 1, 1, 0,20, 0.00,15.00,Tuesday
7,-1.9250000000000003
8,0.0
9,0.0
10,0.0
11,0.0
12,0.0
13,0.0
14,1.6602318614624566
15,-2.9981334536841039
16,0.6431925422841118
17,-2.4646521883815355
18,1.8219169573032137
2,1, 1, 1, 0,20,15.00,30.00,Tuesday
7,-1.6500000000000002
8,0.0
9,0.0
10,0.0
11,0.0
12,0.0
13,0.0
14,1.6663903472329449
15,-2.697310608625723
16,0.7036837005068719
17,-2.2254665576657546
18,1.8147816757721143
2,1, 1, 1, 0,20,30.00,45.00,Tuesday
7,-1.375
8,0.0
9,0.0
10,0.0
11,0.0
12,0.0
13,0.0
14,1.6740863341261916
15,-2.3979176530921957
16,0.7658251758385859
17,-1.9847048452742229
18,1.8104110081747394
2,1, 1, 1, 0,20,45.00,60.00,Tuesday
7,-1.1
8,0.0
9,0.0
10,0.0
11,0.0
12,0.0
13,0.0
14,1.6832977632200746
15,-2.0999084846532547
16,0.8297804119758325
17,-1.74253251630239
18,1.8081864495593952
2,1, 1, 1, 0,21, 0.00,15.00,Tuesday
7,-1.25
8,0.0
9,0.0
10,0.0
11,0.0
12,0.0
13,0.0
14,1.6466905369244116
15,-2.39303656875945
16,0.7731291103592639
17,-1.903997438358033
18,1.8017812888446865
2,1, 1, 1, 0,21,15.00,30.00,Tuesday
7,-1.4
8,0.0
9,0.0
10,0.0
11,0.0
12,0.0
13,0.0
14,1.6104920869980009
15,-2.6158671472480434
16,0.718039999120947
17,-2.0484610261914328
18,1.786383567030103
2,1, 1, 1, 0,21,30.00,45.00,Tuesday
7,-1.5499999999999999
8,0.0
9,0.0
10,0.0
11,0.0
12,0.0
13,0.0
14,1.5601332990632735
15,-2.9758158474479967
16,0.6478038365379462
17,-2.230898045117897
18,1.7603610900450247
2,1, 1, 1, 0,21,45.00,60.00,Tuesday
7,-1.7
8,0.0
9,0.0
10,0.0
11,0.0
12,0.0
13,0.0
14,1.504569569826759
15,-3.4454599300725277
16,0.5641988365504744
17,-2.446175624171701
18,1.7252819504811577
2,1, 1, 1, 0,22, 0.00,15.00,Tuesday
7,-1.5499999999999999
8,0.0
9,0.0
10,0.0
11,0.0
12,0.0
13,0.0
14,1.5233168134496753
15,-2.936820839644979
16,0.59540115044922
17,-2.2362564517509329
18,1.6949067101159406
2,1, 1, 1, 0,22,15.00,30.00,Tuesday
7,-1.4
8,0.0
9,0.0
10,0.0
11,0.0
12,0.0
13,0.0
14,1.5343317646526498
15,-2.5923037881961235
16,0.6455249162644918
17,-2.0630243497056428
18,1.6773421760805468
2,1, 1, 1, 0,22,30.00,45.00,Tuesday
7,-1.25
8,0.0
9,0.0
10,0.0
11,0.0
12,0.0
13,0.0
14,1.5426846710001455
15,-2.3657925731295155
16,0.684165099000893
17,-1.9167381905180037
18,1.6709413974547567
2,1, 1, 1, 0,22,45.00,60.00,Tuesday
7,-1.1
8,0.0
9,0.0
10,0.0
11,0.0
12,0.0
13,0.0
14,1.5547542696429917
15,-2.0716943593349006
16,0.7309959086827007
17,-1.7319970713159592
18,1.6707882674703175
2,1, 1, 1, 0,23, 0.00,15.00,Tuesday
7,-1.25
8,0.0
9,0.0
10,0.0
11,0.0
12,0.0
13,0.0
14,1.5186865854035568
15,-2.3755013196147569
16,0.6484543844690052
17,-2.0119585563155057
18,1.6670088305498854
2,1, 1, 1, 0,23,15.00,30.00,Tuesday
7,-1.4
8,0.0
9,0.0
10,0.0
11,0.0
12,0.0
13,0.0
14,1.4850035247068967
15,-2.680034963618621
16,0.5530806473502707
17,-2.301437503249531
18,1.6539658365259127
2,1, 1, 1, 0,23,30.00,45.00,Tuesday
7,-1.5499999999999999
8,0.0
9,0.0
10,0.0
11,0.0
12,0.0
13,0.0
14,1.445756499215478
15,-2.9851763242742828
16,0.45681812766457599
17,-2.590894535833854
18,1.6317051911516896
2,1, 1, 1, 0,23,45.00,60.00,Tuesday
7,-1.7
8,0.0
9,0.0
10,0.0
11,0.0
12,0.0
13,0.0
14,1.404052434117223
15,-3.2905810439467388
16,0.3568665715338284
17,-2.880973069739184
18,1.6026205565144527
2,1, 1, 1, 0,24, 0.00,15.00,Tuesday
7,-1.7
8,0.0
9,0.0
10,0.0
11,0.0
12,0.0
13,0.0
14,1.3804187896911542
15,-3.344236607868105
16,0.31894779748029125
17,-2.939553231062007
18,1.572135430285776
2,1, 1, 1, 0,24,15.00,30.00,Tuesday
7,-1.7
8,0.0
9,0.0
10,0.0
11,0.0
12,0.0
13,0.0
14,1.3536933862416372
15,-3.398716599508807
16,0.28497202727851347
17,-2.997631312745
18,1.5434578718969303
2,1, 1, 1, 0,24,30.00,45.00,Tuesday
7,-1.7
8,0.0
9,0.0
10,0.0
11,0.0
12,0.0
13,0.0
14,1.3276173810311876
15,-3.453057615442552
16,0.2503577217197517
17,-3.055945900777772
18,1.516934347165164
2,1, 1, 1, 0,24,45.00,60.00,Tuesday
7,-1.7
8,0.0
9,0.0
10,0.0
11,0.0
12,0.0
13,0.0
14,1.3021366665701513
15,-3.5073971859749815
16,0.21637408307071838
17,-3.114055553142748
18,1.4918110532994369
End of Data
 Number of Records Written=        1152
