Program Version,EnergyPlus, Version 9.5.0-de239b2e5f, YMD=2022.11.01 22:08
1,5,Environment Title[],Latitude[deg],Longitude[deg],Time Zone[],Elevation[m]
2,8,Day of Simulation[],Month[],Day of Month[],DST Indicator[1=yes 0=no],Hour[],StartMinute[],EndMinute[],DayType
3,5,Cumulative Day of Simulation[],Month[],Day of Month[],DST Indicator[1=yes 0=no],DayType  ! When Daily Report Variables Requested
4,2,Cumulative Days of Simulation[],Month[]  ! When Monthly Report Variables Requested
5,1,Cumulative Days of Simulation[] ! When Run Period Report Variables Requested
6,1,Calendar Year of Simulation[] ! When Annual Report Variables Requested
7,1,Environment,Site Outdoor Air Drybulb Temperature [C] !TimeStep
8,1,ZONE ONE,Zone Windows Total Transmitted Solar Radiation Rate [W] !TimeStep
9,1,ZN001:WALL001,Surface Outside Face Sunlit Fraction [] !TimeStep
10,1,ZN001:WALL001,Surface Outside Face Incident Solar Radiation Rate per Area [W/m2] !TimeStep
11,1,ZN001:WALL001:WIN001,Surface Outside Face Sunlit Fraction [] !TimeStep
12,1,ZN001:WALL001:WIN001,Surface Outside Face Incident Solar Radiation Rate per Area [W/m2] !TimeStep
13,1,ZN001:WALL001:WIN001,Surface Window Transmitted Solar Radiation Rate [W] !TimeStep
14,1,ZN001:WALL001,Surface Inside Face Temperature [C] !TimeStep
15,1,ZN001:WALL001,Surface Outside Face Temperature [C] !TimeStep
16,1,ZN001:WALL001:WIN001,Surface Inside Face Temperature [C] !TimeStep
17,1,ZN001:WALL001:WIN001,Surface Outside Face Temperature [C] !TimeStep
18,1,ZONE ONE,Zone Mean Air Temperature [C] !TimeStep
End of Data Dictionary
1,RUN PERIOD 1,  41.98, -87.92,  -6.00, 201.00
2,1, 1, 1, 0, 1, 0.00,15.00,Tuesday
7,-4.324999999999999
8,0.0
9,0.0
10,0.0
11,0.0
12,0.0
13,0.0
14,7.20013694866118
15,-5.872840346724331
16,4.656432984249818
17,-4.165152146018613
18,7.692166150996005
2,1, 1, 1, 0, 1,15.00,30.00,Tuesday
7,-6.949999999999999
8,0.0
9,0.0
10,0.0
11,0.0
12,0.0
13,0.0
14,7.015848619832119
15,-8.340040168295812
16,4.053933125871822
17,-6.252665988598437
18,7.589923499450347
2,1, 1, 1, 0, 1,30.00,45.00,Tuesday
7,-9.575
8,0.0
9,0.0
10,0.0
11,0.0
12,0.0
13,0.0
14,6.811433349049503
15,-10.815183331738611
16,3.4448363134042667
17,-8.3463847380674
18,7.456203327639676
2,1, 1, 1, 0, 1,45.00,60.00,Tuesday
7,-12.2
8,0.0
9,0.0
10,0.0
11,0.0
12,0.0
13,0.0
14,6.591168783853261
15,-13.2969586254659
16,2.820689056133574
17,-10.447666300900665
18,7.300822718895184
2,1, 1, 1, 0, 2, 0.00,15.00,Tuesday
7,-12.075
8,0.0
9,0.0
10,0.0
11,0.0
12,0.0
13,0.0
14,6.5184678649195819
15,-13.097763970418449
16,2.748566821728673
17,-10.287404614460229
18,7.160804682611521
2,1, 1, 1, 0, 2,15.00,30.00,Tuesday
7,-11.95
8,0.0
9,0.0
10,0.0
11,0.0
12,0.0
13,0.0
14,6.432552787454825
15,-12.920782028505672
16,2.710629895268255
17,-10.143643926892765
18,7.052826539831687
2,1, 1, 1, 0, 2,30.00,45.00,Tuesday
7,-11.825
8,0.0
9,0.0
10,0.0
11,0.0
12,0.0
13,0.0
14,6.363864937049112
15,-12.742649636541416
16,2.6785234671079936
17,-9.99944727041202
18,6.971179532328577
2,1, 1, 1, 0, 2,45.00,60.00,Tuesday
7,-11.7
8,0.0
9,0.0
10,0.0
11,0.0
12,0.0
13,0.0
14,6.306291563731224
15,-12.564602719241938
16,2.65911632733588
17,-9.852615115291428
18,6.90472631612923
2,1, 1, 1, 0, 3, 0.00,15.00,Tuesday
7,-11.549999999999999
8,0.0
9,0.0
10,0.0
11,0.0
12,0.0
13,0.0
14,6.25037427566793
15,-12.43773923815121
16,2.647632019369553
17,-9.703303683103968
18,6.844591688539757
2,1, 1, 1, 0, 3,15.00,30.00,Tuesday
7,-11.399999999999999
8,0.0
9,0.0
10,0.0
11,0.0
12,0.0
13,0.0
14,6.197543743669444
15,-12.312210778528087
16,2.637968451262509
17,-9.55377395898654
18,6.786503842819017
2,1, 1, 1, 0, 3,30.00,45.00,Tuesday
7,-11.25
8,0.0
9,0.0
10,0.0
11,0.0
12,0.0
13,0.0
14,6.145577816330221
15,-12.188164379815769
16,2.6337453883165269
17,-9.413366038280003
18,6.729359338042855
2,1, 1, 1, 0, 3,45.00,60.00,Tuesday
7,-11.1
8,0.0
9,0.0
10,0.0
11,0.0
12,0.0
13,0.0
14,6.094022143331882
15,-12.065652708043109
16,2.622945024409887
17,-9.254234835309717
18,6.672958896151648
2,1, 1, 1, 0, 4, 0.00,15.00,Tuesday
7,-11.1
8,0.0
9,0.0
10,0.0
11,0.0
12,0.0
13,0.0
14,6.038734572269783
15,-12.03837951779821
16,2.5652453590366806
17,-9.295417809303217
18,6.616420530998506
2,1, 1, 1, 0, 4,15.00,30.00,Tuesday
7,-11.1
8,0.0
9,0.0
10,0.0
11,0.0
12,0.0
13,0.0
14,5.9838263763475079
15,-12.012153740124216
16,2.5108872209300445
17,-9.3354273599532
18,6.559409419983886
2,1, 1, 1, 0, 4,30.00,45.00,Tuesday
7,-11.1
8,0.0
9,0.0
10,0.0
11,0.0
12,0.0
13,0.0
14,5.928727173206849
15,-11.98740734585779
16,2.456900341247092
17,-9.37441186490014
18,6.502066015070018
2,1, 1, 1, 0, 4,45.00,60.00,Tuesday
7,-11.1
8,0.0
9,0.0
10,0.0
11,0.0
12,0.0
13,0.0
14,5.873555131723837
15,-11.964011277336282
16,2.4031168072344259
17,-9.41229126522876
18,6.444626913748772
2,1, 1, 1, 0, 5, 0.00,15.00,Tuesday
7,-10.975
8,0.0
9,0.0
10,0.0
11,0.0
12,0.0
13,0.0
14,5.82399388783929
15,-11.842160117168275
16,2.386678109993568
17,-9.326855968615974
18,6.388334225762064
2,1, 1, 1, 0, 5,15.00,30.00,Tuesday
7,-10.85
8,0.0
9,0.0
10,0.0
11,0.0
12,0.0
13,0.0
14,5.774663941775314
15,-11.720371528900773
16,2.368001911838803
17,-9.233315076452414
18,6.333676031942352
2,1, 1, 1, 0, 5,30.00,45.00,Tuesday
7,-10.725
8,0.0
9,0.0
10,0.0
11,0.0
12,0.0
13,0.0
14,5.726387113313658
15,-11.598559749784036
16,2.349624342176412
17,-9.138922184405942
18,6.280411407905784
2,1, 1, 1, 0, 5,45.00,60.00,Tuesday
7,-10.6
8,0.0
9,0.0
10,0.0
11,0.0
12,0.0
13,0.0
14,5.678982745521034
15,-11.47675731905793
16,2.33206902430004
17,-9.04428988642934
18,6.228152744781922
2,1, 1, 1, 0, 6, 0.00,15.00,Tuesday
7,-10.6
8,0.0
9,0.0
10,0.0
11,0.0
12,0.0
13,0.0
14,5.624710617956557
15,-11.47780798842696
16,2.2858245142936086
17,-9.046332904433826
18,6.175288093329731
2,1, 1, 1, 0, 6,15.00,30.00,Tuesday
7,-10.6
8,0.0
9,0.0
10,0.0
11,0.0
12,0.0
13,0.0
14,5.57107900766988
15,-11.478813181876369
16,2.240669120411667
17,-9.054922070009411
18,6.121116721911668
2,1, 1, 1, 0, 6,30.00,45.00,Tuesday
7,-10.6
8,0.0
9,0.0
10,0.0
11,0.0
12,0.0
13,0.0
14,5.516917936579627
15,-11.479860207876357
16,2.1957030273454167
17,-9.064080497625469
18,6.065932577171371
2,1, 1, 1, 0, 6,45.00,60.00,Tuesday
7,-10.6
8,0.0
9,0.0
10,0.0
11,0.0
12,0.0
13,0.0
14,5.462460997057159
15,-11.480904702338734
16,2.150384981584466
17,-9.073381863114833
18,6.010256562044688
2,1, 1, 1, 0, 7, 0.00,15.00,Tuesday
7,-10.6
8,0.0
9,0.0
10,0.0
11,0.0
12,0.0
13,0.0
14,5.409928440208084
15,-11.45833917332348
16,2.0978346927782356
17,-9.105801137007461
18,5.9547394951272489
2,1, 1, 1, 0, 7,15.00,30.00,Tuesday
7,-10.6
8,0.0
9,0.0
10,0.0
11,0.0
12,0.0
13,0.0
14,5.357297280572022
15,-11.436943890448689
16,2.0472635754196064
17,-9.138488954444938
18,5.899717751366011
2,1, 1, 1, 0, 7,30.00,45.00,Tuesday
7,-10.6
8,0.0
9,0.0
10,0.0
11,0.0
12,0.0
13,0.0
14,5.304968471217733
15,-11.416638933431415
16,1.9971697084768039
17,-9.170332658956909
18,5.8451738773072459
2,1, 1, 1, 0, 7,45.00,60.00,Tuesday
7,-10.6
8,0.0
9,0.0
10,0.0
11,0.0
12,0.0
13,0.0
14,5.25294700585045
15,-11.397359470176675
16,1.9475967959623404
17,-9.201182410660408
18,5.790998052519201
2,1, 1, 1, 0, 8, 0.00,15.00,Tuesday
7,-10.45
8,0.0
9,0.0
10,0.0
11,0.0
12,0.0
13,0.0
14,5.200453206142119
15,-11.347703817818048
16,1.9240764058580454
17,-9.147804950141392
18,5.73689937198247
2,1, 1, 1, 0, 8,15.00,30.00,Tuesday
7,-10.3
8,181.53280301144316
9,1.0
10,22.819555959623899
11,1.0
12,22.819555959623899
13,181.53280301144316
14,5.272579195218486
15,-9.673861024182074
16,2.2089289032148828
17,-8.825257675257206
18,5.702122483204693
2,1, 1, 1, 0, 8,30.00,45.00,Tuesday
7,-10.15
8,891.3278823604067
9,1.0
10,109.75755355442667
11,1.0
12,109.75755355442667
13,891.3278823604067
14,5.685076194449993
15,-3.3002531716261735
16,3.4312241340056177
17,-7.742007192288497
18,5.740481310892056
2,1, 1, 1, 0, 8,45.00,60.00,Tuesday
7,-10.0
8,1620.7840671886884
9,1.0
10,195.8764694434918
11,1.0
12,195.8764694434918
13,1620.7840671886884
14,6.207055046323596
15,3.1768339065685788
16,4.7830697458668969
17,-6.663065314330254
18,5.85967840779474
2,1, 1, 1, 0, 9, 0.00,15.00,Tuesday
7,-9.725
8,2347.727724179728
9,1.0
10,278.97248314719988
11,1.0
12,278.97248314719988
13,2347.727724179728
14,6.657970502674004
15,8.356288346189717
16,6.196800375633984
17,-5.684081553857482
18,6.035129602814535
2,1, 1, 1, 0, 9,15.00,30.00,Tuesday
7,-9.45
8,3114.0096416298808
9,1.0
10,364.91995730569456
11,1.0
12,364.91995730569456
13,3114.0096416298808
14,7.118170786150837
15,13.4318594456224
16,7.6017037330368
17,-4.706104349370776
18,6.257217043253363
2,1, 1, 1, 0, 9,30.00,45.00,Tuesday
7,-9.175
8,3620.9788466162465
9,1.0
10,420.35879993239237
11,1.0
12,420.35879993239237
13,3620.9788466162465
14,7.448533565502134
15,16.18890436497953
16,8.543734853444107
17,-4.102211708327616
18,6.505284130816617
2,1, 1, 1, 0, 9,45.00,60.00,Tuesday
7,-8.9
8,4147.254307343826
9,1.0
10,478.00138373643099
11,1.0
12,478.00138373643099
13,4147.254307343826
14,7.834782903308446
15,19.18324590798617
16,9.47711046324389
17,-3.478271639537411
18,6.768552198722168
2,1, 1, 1, 0,10, 0.00,15.00,Tuesday
7,-8.350000000000002
8,4684.648484138571
9,1.0
10,536.9185644770597
11,1.0
12,536.9185644770597
13,4684.648484138571
14,8.16982454565024
15,20.298263030320319
16,10.442698388267559
17,-2.809782739798777
18,7.047095027515936
2,1, 1, 1, 0,10,15.00,30.00,Tuesday
7,-7.800000000000001
8,5240.608015708501
9,1.0
10,598.0969199229219
11,1.0
12,598.0969199229219
13,5240.608015708501
14,8.535386029501533
15,21.549355431891695
16,11.424928601392253
17,-2.1408726365226586
18,7.346362883656023
2,1, 1, 1, 0,10,30.00,45.00,Tuesday
7,-7.25
8,5605.323921087527
9,1.0
10,637.6133352894237
11,1.0
12,637.6133352894237
13,5605.323921087527
14,8.822385897428088
15,21.6072677105453
16,12.14483245181151
17,-1.6645410639332568
18,7.472651752026479
2,1, 1, 1, 0,10,45.00,60.00,Tuesday
7,-6.7
8,5964.667754897728
9,1.0
10,676.6412284283772
11,1.0
12,676.6412284283772
13,5964.667754897728
14,9.087525894561506
15,21.76477884099695
16,12.812643231735138
17,-1.1938348899104199
18,7.722352707649281
2,1, 1, 1, 0,11, 0.00,15.00,Tuesday
7,-6.275
8,6317.474208176239
9,1.0
10,715.0112779846514
11,1.0
12,715.0112779846514
13,6317.474208176239
14,9.400530430826548
15,23.86172797378161
16,13.491206317834156
17,-0.5087976352882606
18,7.915493438742338
2,1, 1, 1, 0,11,15.00,30.00,Tuesday
7,-5.85
8,6661.976035384238
9,1.0
10,752.5077794605232
11,1.0
12,752.5077794605232
13,6661.976035384238
14,9.782471540438684
15,25.79863549426995
16,14.197340237377148
17,0.16220297777931592
18,8.368783429966986
2,1, 1, 1, 0,11,30.00,45.00,Tuesday
7,-5.425
8,6559.590639128895
9,1.0
10,742.5988714321785
11,1.0
12,742.5988714321785
13,6559.590639128895
14,10.07884051883727
15,25.652328849576347
16,14.423202236469024
17,0.4699300367443584
18,8.771200197524245
2,1, 1, 1, 0,11,45.00,60.00,Tuesday
7,-5.0
8,6413.293848517131
9,1.0
10,727.8169025450712
11,1.0
12,727.8169025450712
13,6413.293848517131
14,10.336451351910372
15,25.423449165061503
16,14.565044949398328
17,0.7482460979833263
18,9.114169196175246
2,1, 1, 1, 0,12, 0.00,15.00,Tuesday
7,-4.575
8,6161.707695173178
9,1.0
10,700.3759009170325
11,1.0
12,700.3759009170325
13,6161.707695173178
14,10.519853616534109
15,24.681438747423294
16,14.547587625435029
17,0.9719265080605624
18,9.404271641386451
2,1, 1, 1, 0,12,15.00,30.00,Tuesday
7,-4.15
8,5975.1240161008859
9,1.0
10,681.6705029034473
11,1.0
12,681.6705029034473
13,5975.1240161008859
14,10.687684751828377
15,24.350688576465119
16,14.579875743974413
17,1.2564759270818514
18,9.655857249283745
2,1, 1, 1, 0,12,30.00,45.00,Tuesday
7,-3.7249999999999998
8,5245.661247453562
9,1.0
10,602.01865277251
11,1.0
12,602.01865277251
13,5245.661247453562
14,10.63395707184757
15,21.32347037508481
16,13.92209164536007
17,1.092716162692568
18,9.845927935474715
2,1, 1, 1, 0,12,45.00,60.00,Tuesday
7,-3.3
8,4284.19743408356
9,1.0
10,493.55004396206007
11,1.0
12,493.55004396206007
13,4284.19743408356
14,10.442705634054516
15,17.14544879179709
16,12.82251072534433
17,0.6895540272341236
18,9.94734181781002
2,1, 1, 1, 0,13, 0.00,15.00,Tuesday
7,-3.0249999999999996
8,3537.4455931172308
9,1.0
10,412.335026418112
11,1.0
12,412.335026418112
13,3537.4455931172308
14,10.311294788319545
15,14.30207203849774
16,11.934873757963374
17,0.42267330287006646
18,9.977831573650502
2,1, 1, 1, 0,13,15.00,30.00,Tuesday
7,-2.75
8,2590.8531860443756
9,1.0
10,305.94037763660148
11,1.0
12,305.94037763660148
13,2590.8531860443756
14,9.994504053725624
15,10.129474498392286
16,10.684673935255205
17,-0.06055481307419086
18,9.948129030996622
2,1, 1, 1, 0,13,30.00,45.00,Tuesday
7,-2.475
8,2365.3572461209334
9,1.0
10,281.0763483922329
11,1.0
12,281.0763483922329
13,2365.3572461209334
14,9.967051446361945
15,9.617764748840779
16,10.37639512711894
17,0.07081767385170679
18,9.89985858342412
2,1, 1, 1, 0,13,45.00,60.00,Tuesday
7,-2.2
8,2144.5586982867519
9,1.0
10,256.7721209415886
11,1.0
12,256.7721209415886
13,2144.5586982867519
14,9.931096193448316
15,9.011411969752844
16,10.14867564741428
17,0.2271115814771747
18,9.858674468547463
2,1, 1, 1, 0,14, 0.00,15.00,Tuesday
7,-1.9250000000000003
8,1751.8863449049418
9,1.0
10,210.73276284570657
11,1.0
12,210.73276284570657
13,1751.8863449049418
14,9.779725760502674
15,7.46460731548135
16,9.587959312885574
17,0.17117639941545804
18,9.82174038388061
2,1, 1, 1, 0,14,15.00,30.00,Tuesday
7,-1.6500000000000002
8,1556.2405744296307
9,1.0
10,189.38488290342594
11,1.0
12,189.38488290342594
13,1556.2405744296307
14,9.742409810535158
15,7.061348947875566
16,9.340115249776204
17,0.30632281632995275
18,9.78861629834805
2,1, 1, 1, 0,14,30.00,45.00,Tuesday
7,-1.375
8,1484.2130869689468
9,1.0
10,179.3940297802914
11,1.0
12,179.3940297802914
13,1484.2130869689468
14,9.731207368440098
15,7.18533226873311
16,9.290243457955058
17,0.5469419513174216
18,9.760520480312023
2,1, 1, 1, 0,14,45.00,60.00,Tuesday
7,-1.1
8,1411.3627249611464
9,1.0
10,169.43349014176136
11,1.0
12,169.43349014176136
13,1411.3627249611464
14,9.71619621414564
15,7.28541773188175
16,9.23337229429228
17,0.7860642879155648
18,9.73681289786342
2,1, 1, 1, 0,15, 0.00,15.00,Tuesday
7,-1.1
8,1485.5478120968069
9,1.0
10,178.15692317953907
11,1.0
12,178.15692317953907
13,1485.5478120968069
14,9.780358916382215
15,8.104706652681602
16,9.3600786243843
17,0.9195473193693715
18,9.72130891630122
2,1, 1, 1, 0,15,15.00,30.00,Tuesday
7,-1.1
8,1395.631370770964
9,1.0
10,166.40516310952945
11,1.0
12,166.40516310952945
13,1395.631370770964
14,9.727005203354338
15,7.742164012121852
16,9.226123368439403
17,0.8724787242927619
18,9.708596768678675
2,1, 1, 1, 0,15,30.00,45.00,Tuesday
7,-1.1
8,1176.7712955677362
9,1.0
10,140.8967369711617
11,1.0
12,140.8967369711617
13,1176.7712955677362
14,9.598143482304496
15,6.534116549024602
16,8.858431276586885
17,0.6701113010070685
18,9.688132698963538
2,1, 1, 1, 0,15,45.00,60.00,Tuesday
7,-1.1
8,968.3868714638447
9,1.0
10,116.57355796743004
11,1.0
12,116.57355796743004
13,968.3868714638447
14,9.487146304456595
15,5.3313367256129429
16,8.492435344865385
17,0.4590182345167477
18,9.64736553996863
2,1, 1, 1, 0,16, 0.00,15.00,Tuesday
7,-1.1
8,768.5670723105961
9,1.0
10,93.14939272689483
11,1.0
12,93.14939272689483
13,768.5670723105961
14,9.375992427198803
15,4.281999654406637
16,8.167374933668953
17,0.33162437550504367
18,9.584740849691349
2,1, 1, 1, 0,16,15.00,30.00,Tuesday
7,-1.1
8,477.12783111999388
9,1.0
10,57.94047897402063
11,1.0
12,57.94047897402063
13,477.12783111999388
14,9.172428058104228
15,2.160838861163275
16,7.667033231254663
17,0.06275109453326877
18,9.495047908017428
2,1, 1, 1, 0,16,30.00,45.00,Tuesday
7,-1.1
8,369.92992568886566
9,1.0
10,45.38251793443488
11,1.0
12,45.38251793443488
13,369.92992568886566
14,9.089636883602547
15,1.5536471980140308
16,7.444615076661762
17,0.027026645152091079
18,9.394377587652143
2,1, 1, 1, 0,16,45.00,60.00,Tuesday
7,-1.1
8,258.23559610474657
9,1.0
10,32.02625108222755
11,1.0
12,32.02625108222755
13,258.23559610474657
14,8.967834424687976
15,0.6944184847336333
16,7.237883294248036
17,-0.010825785968677338
18,9.296038372915535
2,1, 1, 1, 0,17, 0.00,15.00,Tuesday
7,-1.1
8,141.64186277857659
9,1.0
10,17.762198626050539
11,1.0
12,17.762198626050539
13,141.64186277857659
14,8.82209162856288
15,-0.5512988215822925
16,6.979452375915912
17,-0.15875202259928757
18,9.198632707444667
2,1, 1, 1, 0,17,15.00,30.00,Tuesday
7,-1.1
8,0.0
9,0.0
10,0.0
11,0.0
12,0.0
13,0.0
14,8.626510974789028
15,-2.385947755345722
16,6.643204186559274
17,-0.426534508534246
18,9.089175857578307
2,1, 1, 1, 0,17,30.00,45.00,Tuesday
7,-1.1
8,0.0
9,0.0
10,0.0
11,0.0
12,0.0
13,0.0
14,8.565767336434483
15,-2.5192659662001164
16,6.556205775297826
17,-0.40252625726475346
18,8.982549661174325
2,1, 1, 1, 0,17,45.00,60.00,Tuesday
7,-1.1
8,0.0
9,0.0
10,0.0
11,0.0
12,0.0
13,0.0
14,8.489101557599485
15,-2.7056944526513004
16,6.510615850948454
17,-0.3631967130693283
18,8.892674174253826
2,1, 1, 1, 0,18, 0.00,15.00,Tuesday
7,-1.25
8,0.0
9,0.0
10,0.0
11,0.0
12,0.0
13,0.0
14,8.423929886973666
15,-2.8541293687627946
16,6.416840672477463
17,-0.5053638301457681
18,8.820020270914613
2,1, 1, 1, 0,18,15.00,30.00,Tuesday
7,-1.4
8,0.0
9,0.0
10,0.0
11,0.0
12,0.0
13,0.0
14,8.364315791904364
15,-3.0065861626546686
16,6.339690532559871
17,-0.6328163166367062
18,8.759034598594063
2,1, 1, 1, 0,18,30.00,45.00,Tuesday
7,-1.5499999999999999
8,0.0
9,0.0
10,0.0
11,0.0
12,0.0
13,0.0
14,8.308877242390694
15,-3.1586507666449017
16,6.264498263885116
17,-0.7645309352716367
18,8.704238581696558
2,1, 1, 1, 0,18,45.00,60.00,Tuesday
7,-1.7
8,0.0
9,0.0
10,0.0
11,0.0
12,0.0
13,0.0
14,8.255397727758798
15,-3.310884029191103
16,6.192237995442724
17,-0.8954919902827783
18,8.65228639097402
2,1, 1, 1, 0,19, 0.00,15.00,Tuesday
7,-1.825
8,0.0
9,0.0
10,0.0
11,0.0
12,0.0
13,0.0
14,8.225888241391149
15,-3.170636301509018
16,6.105108431427652
17,-1.0755544968171762
18,8.605015551102069
2,1, 1, 1, 0,19,15.00,30.00,Tuesday
7,-1.9500000000000002
8,0.0
9,0.0
10,0.0
11,0.0
12,0.0
13,0.0
14,8.195142169210753
15,-3.1108606745503488
16,6.034083719969658
17,-1.2402850065621465
18,8.564203283971825
2,1, 1, 1, 0,19,30.00,45.00,Tuesday
7,-2.075
8,0.0
9,0.0
10,0.0
11,0.0
12,0.0
13,0.0
14,8.160245987047475
15,-3.186573911777363
16,5.979795746531636
17,-1.3618153013202346
18,8.528495727016886
2,1, 1, 1, 0,19,45.00,60.00,Tuesday
7,-2.2
8,0.0
9,0.0
10,0.0
11,0.0
12,0.0
13,0.0
14,8.128071354340716
15,-3.1704891396243899
16,5.913273983416843
17,-1.518413909788876
18,8.49484044607504
2,1, 1, 1, 0,20, 0.00,15.00,Tuesday
7,-1.9250000000000003
8,0.0
9,0.0
10,0.0
11,0.0
12,0.0
13,0.0
14,8.111618409562638
15,-2.8708399137536966
16,5.948329079299697
17,-1.317083931946911
18,8.463850400719169
2,1, 1, 1, 0,20,15.00,30.00,Tuesday
7,-1.6500000000000002
8,0.0
9,0.0
10,0.0
11,0.0
12,0.0
13,0.0
14,8.095600071249415
15,-2.574034519283106
16,5.981350874506461
17,-1.1041990577746788
18,8.436123402970548
2,1, 1, 1, 0,20,30.00,45.00,Tuesday
7,-1.375
8,0.0
9,0.0
10,0.0
11,0.0
12,0.0
13,0.0
14,8.081401923287608
15,-2.278443717628997
16,6.0160094911482819
17,-0.888917096514092
18,8.41127524018437
2,1, 1, 1, 0,20,45.00,60.00,Tuesday
7,-1.1
8,0.0
9,0.0
10,0.0
11,0.0
12,0.0
13,0.0
14,8.068798520236936
15,-1.9840537986086285
16,6.052742119089487
17,-0.6713880045178939
18,8.388588926877376
2,1, 1, 1, 0,21, 0.00,15.00,Tuesday
7,-1.25
8,0.0
9,0.0
10,0.0
11,0.0
12,0.0
13,0.0
14,8.016667958553276
15,-2.25889984211725
16,6.0135315747735949
17,-0.7360845392254305
18,8.36134838227371
2,1, 1, 1, 0,21,15.00,30.00,Tuesday
7,-1.4
8,0.0
9,0.0
10,0.0
11,0.0
12,0.0
13,0.0
14,7.9652825195786589
15,-2.4721221079224504
16,5.958274385497305
17,-0.8273767641800305
18,8.324949804833726
2,1, 1, 1, 0,21,30.00,45.00,Tuesday
7,-1.5499999999999999
8,0.0
9,0.0
10,0.0
11,0.0
12,0.0
13,0.0
14,7.900976423836161
15,-2.808082550416898
16,5.911568258257091
17,-0.8812289738899608
18,8.278707938893588
2,1, 1, 1, 0,21,45.00,60.00,Tuesday
7,-1.7
8,0.0
9,0.0
10,0.0
11,0.0
12,0.0
13,0.0
14,7.831403601947623
15,-3.2503482634484395
16,5.865677588419089
17,-0.9042667002395319
18,8.224967422639978
2,1, 1, 1, 0,22, 0.00,15.00,Tuesday
7,-1.5499999999999999
8,0.0
9,0.0
10,0.0
11,0.0
12,0.0
13,0.0
14,7.827888311279019
15,-2.7741463400199914
16,5.823909729067395
17,-0.8960812608107176
18,8.177032046922236
2,1, 1, 1, 0,22,15.00,30.00,Tuesday
7,-1.4
8,0.0
9,0.0
10,0.0
11,0.0
12,0.0
13,0.0
14,7.813109910158867
15,-2.4517184483446154
16,5.81758263269387
17,-0.8490383493465288
18,8.141811987426597
2,1, 1, 1, 0,22,30.00,45.00,Tuesday
7,-1.25
8,0.0
9,0.0
10,0.0
11,0.0
12,0.0
13,0.0
14,7.79875317897618
15,-2.235023799316947
16,5.823587055117002
17,-0.7623896542796729
18,8.1169594243183
2,1, 1, 1, 0,22,45.00,60.00,Tuesday
7,-1.1
8,0.0
9,0.0
10,0.0
11,0.0
12,0.0
13,0.0
14,7.788192720136532
15,-1.9586813234597343
16,5.825973622383231
17,-0.6904733292481069
18,8.097237229221119
2,1, 1, 1, 0,23, 0.00,15.00,Tuesday
7,-1.25
8,0.0
9,0.0
10,0.0
11,0.0
12,0.0
13,0.0
14,7.735307373760121
15,-2.2619526064385178
16,5.7327458528876609
17,-0.9677570952501355
18,8.072226845062215
2,1, 1, 1, 0,23,15.00,30.00,Tuesday
7,-1.4
8,0.0
9,0.0
10,0.0
11,0.0
12,0.0
13,0.0
14,7.684596331716078
15,-2.566635251181213
16,5.627711778536764
17,-1.259418774330129
18,8.036989392727856
2,1, 1, 1, 0,23,30.00,45.00,Tuesday
7,-1.5499999999999999
8,0.0
9,0.0
10,0.0
11,0.0
12,0.0
13,0.0
14,7.62909900822385
15,-2.8719615550847208
16,5.520670170678613
17,-1.552704203228359
18,7.992844537541279
2,1, 1, 1, 0,23,45.00,60.00,Tuesday
7,-1.7
8,0.0
9,0.0
10,0.0
11,0.0
12,0.0
13,0.0
14,7.569694999710389
15,-3.177632506591056
16,5.409433846629213
17,-1.848118059474018
18,7.942853280725696
2,1, 1, 1, 0,24, 0.00,15.00,Tuesday
7,-1.7
8,0.0
9,0.0
10,0.0
11,0.0
12,0.0
13,0.0
14,7.526013959998551
15,-3.2318331912068136
16,5.354711246820045
17,-1.9155187248621815
18,7.892614239668122
2,1, 1, 1, 0,24,15.00,30.00,Tuesday
7,-1.7
8,0.0
9,0.0
10,0.0
11,0.0
12,0.0
13,0.0
14,7.480297329829765
15,-3.286598251400924
16,5.304813536445579
17,-1.9785358738602668
18,7.845036777281681
2,1, 1, 1, 0,24,30.00,45.00,Tuesday
7,-1.7
8,0.0
9,0.0
10,0.0
11,0.0
12,0.0
13,0.0
14,7.435731093272844
15,-3.3412555484338175
16,5.254766655601884
17,-2.0413169247567568
18,7.800015253040722
2,1, 1, 1, 0,24,45.00,60.00,Tuesday
7,-1.7
8,0.0
9,0.0
10,0.0
11,0.0
12,0.0
13,0.0
14,7.39201006578092
15,-3.3959164240920445
16,5.20567625227568
17,-2.103739431097665
18,7.756477643000068
End of Data
 Number of Records Written=        1152
