Program Version,EnergyPlus, Version 9.5.0-de239b2e5f, YMD=2022.11.01 22:08
1,5,Environment Title[],Latitude[deg],Longitude[deg],Time Zone[],Elevation[m]
2,8,Day of Simulation[],Month[],Day of Month[],DST Indicator[1=yes 0=no],Hour[],StartMinute[],EndMinute[],DayType
3,5,Cumulative Day of Simulation[],Month[],Day of Month[],DST Indicator[1=yes 0=no],DayType  ! When Daily Report Variables Requested
4,2,Cumulative Days of Simulation[],Month[]  ! When Monthly Report Variables Requested
5,1,Cumulative Days of Simulation[] ! When Run Period Report Variables Requested
6,1,Calendar Year of Simulation[] ! When Annual Report Variables Requested
7,1,Environment,Site Outdoor Air Drybulb Temperature [C] !TimeStep
8,1,ZONE ONE,Zone Windows Total Transmitted Solar Radiation Rate [W] !TimeStep
9,1,ZN001:WALL001,Surface Outside Face Sunlit Fraction [] !TimeStep
10,1,ZN001:WALL001,Surface Outside Face Incident Solar Radiation Rate per Area [W/m2] !TimeStep
11,1,ZN001:WALL001:WIN001,Surface Outside Face Sunlit Fraction [] !TimeStep
12,1,ZN001:WALL001:WIN001,Surface Outside Face Incident Solar Radiation Rate per Area [W/m2] !TimeStep
13,1,ZN001:WALL001:WIN001,Surface Window Transmitted Solar Radiation Rate [W] !TimeStep
14,1,ZN001:WALL001,Surface Inside Face Temperature [C] !TimeStep
15,1,ZN001:WALL001,Surface Outside Face Temperature [C] !TimeStep
16,1,ZN001:WALL001:WIN001,Surface Inside Face Temperature [C] !TimeStep
17,1,ZN001:WALL001:WIN001,Surface Outside Face Temperature [C] !TimeStep
18,1,ZONE ONE,Zone Mean Air Temperature [C] !TimeStep
End of Data Dictionary
1,RUN PERIOD 1,  41.98, -87.92,  -6.00, 201.00
2,1, 1, 1, 0, 1, 0.00,15.00,Tuesday
7,-4.324999999999999
8,0.0
9,0.0
10,0.0
11,0.0
12,0.0
13,0.0
14,8.720808523485518
15,-5.845203787127319
16,5.923222602590499
17,-3.9089068186704027
18,9.249485503681547
2,1, 1, 1, 0, 1,15.00,30.00,Tuesday
7,-6.949999999999999
8,0.0
9,0.0
10,0.0
11,0.0
12,0.0
13,0.0
14,8.53381490921274
15,-8.312120501472638
16,5.323497036998731
17,-5.99626070147167
18,9.142367568137925
2,1, 1, 1, 0, 1,30.00,45.00,Tuesday
7,-9.575
8,0.0
9,0.0
10,0.0
11,0.0
12,0.0
13,0.0
14,8.326546135319589
15,-10.786956082810823
16,4.71651055942209
17,-8.089662175800413
18,9.004152981457138
2,1, 1, 1, 0, 1,45.00,60.00,Tuesday
7,-12.2
8,0.0
9,0.0
10,0.0
11,0.0
12,0.0
13,0.0
14,8.10345775045011
15,-13.268438315655294
16,4.094180856990647
17,-10.190500696452205
18,8.844761579192179
2,1, 1, 1, 0, 2, 0.00,15.00,Tuesday
7,-12.075
8,0.0
9,0.0
10,0.0
11,0.0
12,0.0
13,0.0
14,8.025991710739767
15,-13.06903004739372
16,4.0187177846971739
17,-10.027414561001934
18,8.701168938071456
2,1, 1, 1, 0, 2,15.00,30.00,Tuesday
7,-11.95
8,0.0
9,0.0
10,0.0
11,0.0
12,0.0
13,0.0
14,7.935697832965746
15,-12.89214376897319
16,3.9763208137893004
17,-9.884794654098187
18,8.589719634099567
2,1, 1, 1, 0, 2,30.00,45.00,Tuesday
7,-11.825
8,0.0
9,0.0
10,0.0
11,0.0
12,0.0
13,0.0
14,7.862669394680657
15,-12.714119023863843
16,3.9399566987208347
17,-9.741698276433113
18,8.50437305298169
2,1, 1, 1, 0, 2,45.00,60.00,Tuesday
7,-11.7
8,0.0
9,0.0
10,0.0
11,0.0
12,0.0
13,0.0
14,7.80066680694592
15,-12.53618646492264
16,3.9162924725327459
17,-9.595978356429498
18,8.433870420902837
2,1, 1, 1, 0, 3, 0.00,15.00,Tuesday
7,-11.549999999999999
8,0.0
9,0.0
10,0.0
11,0.0
12,0.0
13,0.0
14,7.740312383324592
15,-12.408642617439743
16,3.901519273896156
17,-9.44370094615897
18,8.369404663351674
2,1, 1, 1, 0, 3,15.00,30.00,Tuesday
7,-11.399999999999999
8,0.0
9,0.0
10,0.0
11,0.0
12,0.0
13,0.0
14,7.682941014130564
15,-12.282403149493515
16,3.8884627976254935
17,-9.291138578823052
18,8.306823828362728
2,1, 1, 1, 0, 3,30.00,45.00,Tuesday
7,-11.25
8,0.0
9,0.0
10,0.0
11,0.0
12,0.0
13,0.0
14,7.6263321680194979
15,-12.15760909299377
16,3.8770671665340616
17,-9.138270016252136
18,8.245052655375316
2,1, 1, 1, 0, 3,45.00,60.00,Tuesday
7,-11.1
8,0.0
9,0.0
10,0.0
11,0.0
12,0.0
13,0.0
14,7.570202384708067
15,-12.034314029691466
16,3.866290961112554
17,-8.985352501389912
18,8.184044054818136
2,1, 1, 1, 0, 4, 0.00,15.00,Tuesday
7,-11.1
8,0.0
9,0.0
10,0.0
11,0.0
12,0.0
13,0.0
14,7.510241306383934
15,-12.00802993963991
16,3.803651196467797
17,-9.03155832551397
18,8.122885253537424
2,1, 1, 1, 0, 4,15.00,30.00,Tuesday
7,-11.1
8,0.0
9,0.0
10,0.0
11,0.0
12,0.0
13,0.0
14,7.450686210380826
15,-11.982752722669547
16,3.74438245212923
17,-9.076270093461347
18,8.06121089315375
2,1, 1, 1, 0, 4,30.00,45.00,Tuesday
7,-11.1
8,0.0
9,0.0
10,0.0
11,0.0
12,0.0
13,0.0
14,7.390928094569792
15,-11.958908299090299
16,3.685494230555605
17,-9.119857074241168
18,7.999170378049597
2,1, 1, 1, 0, 4,45.00,60.00,Tuesday
7,-11.1
8,0.0
9,0.0
10,0.0
11,0.0
12,0.0
13,0.0
14,7.331093678070438
15,-11.936368877503437
16,3.6268179748278728
17,-9.162249984847222
18,7.937022142233629
2,1, 1, 1, 0, 5, 0.00,15.00,Tuesday
7,-10.975
8,0.0
9,0.0
10,0.0
11,0.0
12,0.0
13,0.0
14,7.276851857931769
15,-11.814628072040352
16,3.606193471116285
17,-9.077728745378238
18,7.87604987152555
2,1, 1, 1, 0, 5,15.00,30.00,Tuesday
7,-10.85
8,0.0
9,0.0
10,0.0
11,0.0
12,0.0
13,0.0
14,7.222857163748311
15,-11.692941456004708
16,3.5832157316302757
17,-8.985018735248673
18,7.816747014463973
2,1, 1, 1, 0, 5,30.00,45.00,Tuesday
7,-10.725
8,0.0
9,0.0
10,0.0
11,0.0
12,0.0
13,0.0
14,7.169943599205026
15,-11.571230915515127
16,3.560553071063964
17,-8.89145145035593
18,7.758858846451117
2,1, 1, 1, 0, 5,45.00,60.00,Tuesday
7,-10.6
8,0.0
9,0.0
10,0.0
11,0.0
12,0.0
13,0.0
14,7.117921096864759
15,-11.449529550470354
16,3.538735499182849
17,-8.797641016623743
18,7.701987038833518
2,1, 1, 1, 0, 6, 0.00,15.00,Tuesday
7,-10.6
8,0.0
9,0.0
10,0.0
11,0.0
12,0.0
13,0.0
14,7.059153182651409
15,-11.45065576973013
16,3.4885169005508489
17,-8.800570241859078
18,7.644509672090744
2,1, 1, 1, 0, 6,15.00,30.00,Tuesday
7,-10.6
8,0.0
9,0.0
10,0.0
11,0.0
12,0.0
13,0.0
14,7.00103290262266
15,-11.45174595391925
16,3.439434620953193
17,-8.809928383006082
18,7.585736060668679
2,1, 1, 1, 0, 6,30.00,45.00,Tuesday
7,-10.6
8,0.0
9,0.0
10,0.0
11,0.0
12,0.0
13,0.0
14,6.9423911057420739
15,-11.452877640016514
16,3.3905465033766406
17,-8.819838012500896
18,7.525974569987427
2,1, 1, 1, 0, 6,45.00,60.00,Tuesday
7,-10.6
8,0.0
9,0.0
10,0.0
11,0.0
12,0.0
13,0.0
14,6.883470797692335
15,-11.454006225005795
16,3.3413174516746269
17,-8.829885736828374
18,7.465752069015037
2,1, 1, 1, 0, 7, 0.00,15.00,Tuesday
7,-10.6
8,0.0
9,0.0
10,0.0
11,0.0
12,0.0
13,0.0
14,6.8264125888271309
15,-11.432231392665847
16,3.2839176183953215
17,-8.866440455724217
18,7.405699364897502
2,1, 1, 1, 0, 7,15.00,30.00,Tuesday
7,-10.6
8,0.0
9,0.0
10,0.0
11,0.0
12,0.0
13,0.0
14,6.769277325070712
15,-11.411586157252817
16,3.228625735774699
17,-8.90335592639002
18,7.346141849240316
2,1, 1, 1, 0, 7,30.00,45.00,Tuesday
7,-10.6
8,0.0
9,0.0
10,0.0
11,0.0
12,0.0
13,0.0
14,6.712454407914272
15,-11.39199492369519
16,3.173852942669839
17,-8.939343979551382
18,7.287061913565047
2,1, 1, 1, 0, 7,45.00,60.00,Tuesday
7,-10.6
8,0.0
9,0.0
10,0.0
11,0.0
12,0.0
13,0.0
14,6.6559468264501249
15,-11.37339481824496
16,3.119631267968373
17,-8.974240012649887
18,7.228353540258048
2,1, 1, 1, 0, 8, 0.00,15.00,Tuesday
7,-10.45
8,0.0
9,0.0
10,0.0
11,0.0
12,0.0
13,0.0
14,6.5990826795804449
15,-11.323210769461959
16,3.0932089537230924
17,-8.918333897865864
18,7.1697654807124169
2,1, 1, 1, 0, 8,15.00,30.00,Tuesday
7,-10.3
8,208.73384493488994
9,1.0
10,22.819555959623899
11,1.0
12,22.819555959623899
13,208.73384493488994
14,6.671529001878014
15,-9.64910661002143
16,3.3547875284790509
17,-8.607792987133621
18,7.131742775411319
2,1, 1, 1, 0, 8,30.00,45.00,Tuesday
7,-10.15
8,1024.8852708512487
9,1.0
10,109.75755355442667
11,1.0
12,109.75755355442667
13,1024.8852708512487
14,7.097580492919249
15,-3.2718902375381058
16,4.4917662474796888
17,-7.5858674332232
18,7.1715941119082509
2,1, 1, 1, 0, 8,45.00,60.00,Tuesday
7,-10.0
8,1863.6438403489406
9,1.0
10,195.8764694434918
11,1.0
12,195.8764694434918
13,1863.6438403489406
14,7.634565853175792
15,3.199298508373822
16,5.749229134442089
17,-6.573263995534262
18,7.2973286349138279
2,1, 1, 1, 0, 9, 0.00,15.00,Tuesday
7,-9.725
8,2699.513402530977
9,1.0
10,278.97248314719988
11,1.0
12,278.97248314719988
13,2699.513402530977
14,8.11488376604421
15,8.381012580274885
16,7.0296942114883909
17,-5.6711903473702709
18,7.483571321958614
2,1, 1, 1, 0, 9,15.00,30.00,Tuesday
7,-9.45
8,3580.615706247907
9,1.0
10,364.91995730569456
11,1.0
12,364.91995730569456
13,3580.615706247907
14,8.598293258957727
15,13.454527008966336
16,8.414923152421637
17,-4.754767937949964
18,7.718321209120914
2,1, 1, 1, 0, 9,30.00,45.00,Tuesday
7,-9.175
8,4163.549642511924
9,1.0
10,420.35879993239237
11,1.0
12,420.35879993239237
13,4163.549642511924
14,8.94907083885102
15,16.21095617515631
16,9.325612536011875
17,-4.182098427707899
18,7.979799907537641
2,1, 1, 1, 0, 9,45.00,60.00,Tuesday
7,-8.9
8,4768.682701608258
9,1.0
10,478.00138373643099
11,1.0
12,478.00138373643099
13,4768.682701608258
14,9.358210597424226
15,19.204927383449399
16,10.223985259311235
17,-3.597738767206806
18,8.257138299264378
2,1, 1, 1, 0,10, 0.00,15.00,Tuesday
7,-8.350000000000002
8,5386.600515398544
9,1.0
10,536.9185644770597
11,1.0
12,536.9185644770597
13,5386.600515398544
14,9.718212957121798
15,20.31841299500505
16,11.15757593442072
17,-2.960018947588196
18,8.550813820661507
2,1, 1, 1, 0,10,15.00,30.00,Tuesday
7,-7.800000000000001
8,6025.865533773765
9,1.0
10,598.0969199229219
11,1.0
12,598.0969199229219
13,6025.865533773765
14,10.110670735142243
15,21.56838108581489
16,12.108013996033094
17,-2.3191504760388854
18,8.689758218632896
2,1, 1, 1, 0,10,30.00,45.00,Tuesday
7,-7.25
8,6445.2308053706169
9,1.0
10,637.6133352894237
11,1.0
12,637.6133352894237
13,6445.2308053706169
14,10.379682294703463
15,21.624016673191478
16,12.793602431672639
17,-1.8587629659606933
18,8.958365408843191
2,1, 1, 1, 0,10,45.00,60.00,Tuesday
7,-6.7
8,6858.41904926085
9,1.0
10,676.6412284283772
11,1.0
12,676.6412284283772
13,6858.41904926085
14,10.640990875864315
15,21.780751147688066
16,13.419497980925485
17,-1.4032124177729202
18,9.157343502564899
2,1, 1, 1, 0,11, 0.00,15.00,Tuesday
7,-6.275
8,7264.090345516451
9,1.0
10,715.0112779846514
11,1.0
12,715.0112779846514
13,7264.090345516451
14,11.054416625263539
15,23.880420766566524
16,14.112417285904599
17,-0.7347348222513119
18,9.617261123299278
2,1, 1, 1, 0,11,15.00,30.00,Tuesday
7,-5.85
8,7660.212642904103
9,1.0
10,752.5077794605232
11,1.0
12,752.5077794605232
13,7660.212642904103
14,11.520304489866387
15,25.817645324742917
16,14.857875427111935
17,-0.07638495475225682
18,10.047657024727459
2,1, 1, 1, 0,11,30.00,45.00,Tuesday
7,-5.425
8,7542.485724842265
9,1.0
10,742.5988714321785
11,1.0
12,742.5988714321785
13,7542.485724842265
14,11.806751818500447
15,25.669605186561129
16,15.115935714196326
17,0.2410611033914165
18,10.447618779773894
2,1, 1, 1, 0,11,45.00,60.00,Tuesday
7,-5.0
8,7374.267688765462
9,1.0
10,727.8169025450712
11,1.0
12,727.8169025450712
13,7374.267688765462
14,12.079359094056424
15,25.441473587245697
16,15.276652988007016
17,0.5293929192555993
18,10.80123759215481
2,1, 1, 1, 0,12, 0.00,15.00,Tuesday
7,-4.575
8,7084.983635146791
9,1.0
10,700.3759009170325
11,1.0
12,700.3759009170325
13,7084.983635146791
14,12.275195338980554
15,24.69960099152002
16,15.29436417863792
17,0.7705116159615955
18,11.105076770966982
2,1, 1, 1, 0,12,15.00,30.00,Tuesday
7,-4.15
8,6870.442086243247
9,1.0
10,681.6705029034473
11,1.0
12,681.6705029034473
13,6870.442086243247
14,12.490799015913199
15,24.369953144062735
16,15.375051569396533
17,1.0724900080953149
18,11.37175991684022
2,1, 1, 1, 0,12,30.00,45.00,Tuesday
7,-3.7249999999999998
8,6031.6759464012779
9,1.0
10,602.01865277251
11,1.0
12,602.01865277251
13,6031.6759464012779
14,12.404045759392174
15,21.341246084097678
16,14.791692734664253
17,0.9533713007627966
18,11.577086743795558
2,1, 1, 1, 0,12,45.00,60.00,Tuesday
7,-3.3
8,4926.145512225018
9,1.0
10,493.55004396206007
11,1.0
12,493.55004396206007
13,4926.145512225018
14,12.210051469369772
15,17.164216095330997
16,13.770147147034209
17,0.612007380971022
18,11.689078246573788
2,1, 1, 1, 0,13, 0.00,15.00,Tuesday
7,-3.0249999999999996
8,4067.4996895895449
9,1.0
10,412.335026418112
11,1.0
12,412.335026418112
13,4067.4996895895449
14,12.076346952564898
15,14.321150176530074
16,12.949438647318914
17,0.3946036785314391
18,11.726002227005257
2,1, 1, 1, 0,13,15.00,30.00,Tuesday
7,-2.75
8,2979.069006887982
9,1.0
10,305.94037763660148
11,1.0
12,305.94037763660148
13,2979.069006887982
14,11.743535352738482
15,10.148797825567718
16,11.761600626278437
17,-0.030471300824274296
18,11.699281700770652
2,1, 1, 1, 0,13,30.00,45.00,Tuesday
7,-2.475
8,2719.7845482304039
9,1.0
10,281.0763483922329
11,1.0
12,281.0763483922329
13,2719.7845482304039
14,11.715880509838116
15,9.637555416622306
16,11.454920611104854
17,0.11513272211840331
18,11.652610511189705
2,1, 1, 1, 0,13,45.00,60.00,Tuesday
7,-2.2
8,2465.9013432068416
9,1.0
10,256.7721209415886
11,1.0
12,256.7721209415886
13,2465.9013432068416
14,11.676700815833155
15,9.031472087428965
16,11.25641380704485
17,0.2888038790948144
18,11.612839286025837
2,1, 1, 1, 0,14, 0.00,15.00,Tuesday
7,-1.9250000000000003
8,2014.3906037629707
9,1.0
10,210.73276284570657
11,1.0
12,210.73276284570657
13,2014.3906037629707
14,11.515200013334239
15,7.485044652948486
16,10.77710692084429
17,0.2582114607136532
18,11.575362163618915
2,1, 1, 1, 0,14,15.00,30.00,Tuesday
7,-1.6500000000000002
8,1789.4290913580645
9,1.0
10,189.38488290342594
11,1.0
12,189.38488290342594
13,1789.4290913580645
14,11.475468717556748
15,7.083364680598834
16,10.556280867784267
17,0.42059063226349738
18,11.540322701935539
2,1, 1, 1, 0,14,30.00,45.00,Tuesday
7,-1.375
8,1706.6089390260832
9,1.0
10,179.3940297802914
11,1.0
12,179.3940297802914
13,1706.6089390260832
14,11.460115641925868
15,7.207880325453607
16,10.51232793313693
17,0.6686855336067765
18,11.509551944658341
2,1, 1, 1, 0,14,45.00,60.00,Tuesday
7,-1.1
8,1622.8426118691305
9,1.0
10,169.43349014176136
11,1.0
12,169.43349014176136
13,1622.8426118691305
14,11.440800014783845
15,7.308776325523599
16,10.461037327846839
17,0.9152110073248423
18,11.48260305901652
2,1, 1, 1, 0,15, 0.00,15.00,Tuesday
7,-1.1
8,1708.1436605930822
9,1.0
10,178.15692317953907
11,1.0
12,178.15692317953907
13,1708.1436605930822
14,11.505802517539492
15,8.128209197205396
16,10.571803401893363
17,1.0447719039453887
18,11.46402504238431
2,1, 1, 1, 0,15,15.00,30.00,Tuesday
7,-1.1
8,1604.7540571195194
9,1.0
10,166.40516310952945
11,1.0
12,166.40516310952945
13,1604.7540571195194
14,11.448890347694406
15,7.766988598150315
16,10.453389131256927
17,1.0078030371799969
18,11.447968049841256
2,1, 1, 1, 0,15,30.00,45.00,Tuesday
7,-1.1
8,1353.0997872460594
9,1.0
10,140.8967369711617
11,1.0
12,140.8967369711617
13,1353.0997872460594
14,11.304766377307802
15,6.552168168557552
16,10.119258590774507
17,0.8279774906684452
18,11.42376204334496
2,1, 1, 1, 0,15,45.00,60.00,Tuesday
7,-1.1
8,1113.4908496535014
9,1.0
10,116.57355796743004
11,1.0
12,116.57355796743004
13,1113.4908496535014
14,11.197372585795252
15,5.35957742573682
16,9.780557812642883
17,0.6398269512226307
18,11.377190557037882
2,1, 1, 1, 0,16, 0.00,15.00,Tuesday
7,-1.1
8,883.7298682799606
9,1.0
10,93.14939272689483
11,1.0
12,93.14939272689483
13,883.7298682799606
14,11.0766083164392
15,4.31081534384783
16,9.481287035802098
17,0.5392448780485211
18,11.30991619793437
2,1, 1, 1, 0,16,15.00,30.00,Tuesday
7,-1.1
8,548.6211035306405
9,1.0
10,57.94047897402063
11,1.0
12,57.94047897402063
13,548.6211035306405
14,10.863298305017566
15,2.1922990892284277
16,9.016571680853247
17,0.30776247652596569
18,11.21689153593614
2,1, 1, 1, 0,16,30.00,45.00,Tuesday
7,-1.1
8,425.3605654988036
9,1.0
10,45.38251793443488
11,1.0
12,45.38251793443488
13,425.3605654988036
14,10.77571437669708
15,1.588030981094181
16,8.804149435562636
17,0.29532968830540087
18,11.113386477787977
2,1, 1, 1, 0,16,45.00,60.00,Tuesday
7,-1.1
8,296.9298549893857
9,1.0
10,32.02625108222755
11,1.0
12,32.02625108222755
13,296.9298549893857
14,10.648126934271748
15,0.732203908715815
16,8.61126501418022
17,0.28328565708136468
18,11.012214850763514
2,1, 1, 1, 0,17, 0.00,15.00,Tuesday
7,-1.1
8,162.8656095816021
9,1.0
10,17.762198626050539
11,1.0
12,17.762198626050539
13,162.8656095816021
14,10.496735031030238
15,-0.5089638151267829
16,8.367011344214575
17,0.16306352097399214
18,10.911357753363255
2,1, 1, 1, 0,17,15.00,30.00,Tuesday
7,-1.1
8,0.0
9,0.0
10,0.0
11,0.0
12,0.0
13,0.0
14,10.294634152319582
15,-2.3414321416730745
16,8.044014814529647
17,-0.08753324317967781
18,10.797171774440964
2,1, 1, 1, 0,17,30.00,45.00,Tuesday
7,-1.1
8,0.0
9,0.0
10,0.0
11,0.0
12,0.0
13,0.0
14,10.229688373342834
15,-2.4724819476659589
16,7.956572342360573
17,-0.044675517897417197
18,10.685646298646072
2,1, 1, 1, 0,17,45.00,60.00,Tuesday
7,-1.1
8,0.0
9,0.0
10,0.0
11,0.0
12,0.0
13,0.0
14,10.148227963797006
15,-2.655102696716362
16,7.910901203068818
17,0.011465506951594762
18,10.591452411179619
2,1, 1, 1, 0,18, 0.00,15.00,Tuesday
7,-1.25
8,0.0
9,0.0
10,0.0
11,0.0
12,0.0
13,0.0
14,10.078350475340882
15,-2.8040378380861967
16,7.814362312948731
17,-0.1287841631249762
18,10.514795253774352
2,1, 1, 1, 0,18,15.00,30.00,Tuesday
7,-1.4
8,0.0
9,0.0
10,0.0
11,0.0
12,0.0
13,0.0
14,10.014190586604283
15,-2.956532218005341
16,7.730819621746718
17,-0.2625061361842427
18,10.44977200165598
2,1, 1, 1, 0,18,30.00,45.00,Tuesday
7,-1.5499999999999999
8,0.0
9,0.0
10,0.0
11,0.0
12,0.0
13,0.0
14,9.954273009571527
15,-3.1086952486186276
16,7.652043911949534
17,-0.3953088534173048
18,10.390716433695458
2,1, 1, 1, 0,18,45.00,60.00,Tuesday
7,-1.7
8,0.0
9,0.0
10,0.0
11,0.0
12,0.0
13,0.0
14,9.896247782528107
15,-3.2610253940168096
16,7.576149026640735
17,-0.5274588828867195
18,10.334275674476438
2,1, 1, 1, 0,19, 0.00,15.00,Tuesday
7,-1.825
8,0.0
9,0.0
10,0.0
11,0.0
12,0.0
13,0.0
14,9.860440518287616
15,-3.126658795362243
16,7.479188933230375
17,-0.7320888092818905
18,10.282150780629202
2,1, 1, 1, 0,19,15.00,30.00,Tuesday
7,-1.9500000000000002
8,0.0
9,0.0
10,0.0
11,0.0
12,0.0
13,0.0
14,9.82513571989909
15,-3.071982256285225
16,7.398362708346156
17,-0.9207297813580908
18,10.236296827215684
2,1, 1, 1, 0,19,30.00,45.00,Tuesday
7,-2.075
8,0.0
9,0.0
10,0.0
11,0.0
12,0.0
13,0.0
14,9.78490769613761
15,-3.1491582083593756
16,7.339329250749756
17,-1.0495278913212474
18,10.195477033568795
2,1, 1, 1, 0,19,45.00,60.00,Tuesday
7,-2.2
8,0.0
9,0.0
10,0.0
11,0.0
12,0.0
13,0.0
14,9.746346260576115
15,-3.1375368929990588
16,7.26311679039128
17,-1.2275301359642299
18,10.156446772460635
2,1, 1, 1, 0,20, 0.00,15.00,Tuesday
7,-1.9250000000000003
8,0.0
9,0.0
10,0.0
11,0.0
12,0.0
13,0.0
14,9.725439270153958
15,-2.8389524440981277
16,7.292251341669157
17,-1.0319125633311047
18,10.12010845922974
2,1, 1, 1, 0,20,15.00,30.00,Tuesday
7,-1.6500000000000002
8,0.0
9,0.0
10,0.0
11,0.0
12,0.0
13,0.0
14,9.703827677918689
15,-2.5431914649764288
16,7.319167791237078
17,-0.8245548047941611
18,10.087157005099624
2,1, 1, 1, 0,20,30.00,45.00,Tuesday
7,-1.375
8,0.0
9,0.0
10,0.0
11,0.0
12,0.0
13,0.0
14,9.684197972290474
15,-2.248543835121622
16,7.347436937683938
17,-0.6147698512231727
18,10.057133700319053
2,1, 1, 1, 0,20,45.00,60.00,Tuesday
7,-1.1
8,0.0
9,0.0
10,0.0
11,0.0
12,0.0
13,0.0
14,9.6661944472642
15,-1.9550543580190035
16,7.377867775193977
17,-0.4025996164023127
18,10.029259429274334
2,1, 1, 1, 0,21, 0.00,15.00,Tuesday
7,-1.25
8,0.0
9,0.0
10,0.0
11,0.0
12,0.0
13,0.0
14,9.6098432421462
15,-2.225381058881028
16,7.341217414259063
17,-0.44594807780316617
18,9.996831450921255
2,1, 1, 1, 0,21,15.00,30.00,Tuesday
7,-1.4
8,0.0
9,0.0
10,0.0
11,0.0
12,0.0
13,0.0
14,9.554267915932849
15,-2.436167325880271
16,7.284772281690664
17,-0.5260424741048837
18,9.955311259191417
2,1, 1, 1, 0,21,30.00,45.00,Tuesday
7,-1.5499999999999999
8,0.0
9,0.0
10,0.0
11,0.0
12,0.0
13,0.0
14,9.486129072230126
15,-2.766049074101827
16,7.241376418870686
17,-0.5536909128412617
18,9.90417892636814
2,1, 1, 1, 0,21,45.00,60.00,Tuesday
7,-1.7
8,0.0
9,0.0
10,0.0
11,0.0
12,0.0
13,0.0
14,9.412753159375605
15,-3.201231293857098
16,7.198612534843733
17,-0.5481727662199205
18,9.845855813116755
2,1, 1, 1, 0,22, 0.00,15.00,Tuesday
7,-1.5499999999999999
8,0.0
9,0.0
10,0.0
11,0.0
12,0.0
13,0.0
14,9.40244774962178
15,-2.7333103333466357
16,7.144433532439621
17,-0.5691886007881521
18,9.793291115506234
2,1, 1, 1, 0,22,15.00,30.00,Tuesday
7,-1.4
8,0.0
9,0.0
10,0.0
11,0.0
12,0.0
13,0.0
14,9.382869077451396
15,-2.416425388886793
16,7.129147414809381
17,-0.5546768013573455
18,9.753397147094056
2,1, 1, 1, 0,22,30.00,45.00,Tuesday
7,-1.25
8,0.0
9,0.0
10,0.0
11,0.0
12,0.0
13,0.0
14,9.362992290739472
15,-2.2022805622298478
16,7.1259139360951739
17,-0.47568697269730367
18,9.723702934486946
2,1, 1, 1, 0,22,45.00,60.00,Tuesday
7,-1.1
8,0.0
9,0.0
10,0.0
11,0.0
12,0.0
13,0.0
14,9.346928595063341
15,-1.9303894169451919
16,7.11703702640159
17,-0.4272514153597058
18,9.698878777237026
2,1, 1, 1, 0,23, 0.00,15.00,Tuesday
7,-1.25
8,0.0
9,0.0
10,0.0
11,0.0
12,0.0
13,0.0
14,9.289656680647133
15,-2.23359428041346
16,7.0213774404530799
17,-0.7062074739228592
18,9.66853830109266
2,1, 1, 1, 0,23,15.00,30.00,Tuesday
7,-1.4
8,0.0
9,0.0
10,0.0
11,0.0
12,0.0
13,0.0
14,9.234547708714669
15,-2.538321144436201
16,6.913734195490974
17,-0.9970694734558947
18,9.6279367620085
2,1, 1, 1, 0,23,30.00,45.00,Tuesday
7,-1.5499999999999999
8,0.0
9,0.0
10,0.0
11,0.0
12,0.0
13,0.0
14,9.174534100356056
15,-2.8436985681160626
16,6.804036127518032
17,-1.2893031711151367
18,9.57857183576449
2,1, 1, 1, 0,23,45.00,60.00,Tuesday
7,-1.7
8,0.0
9,0.0
10,0.0
11,0.0
12,0.0
13,0.0
14,9.110631662324128
15,-3.1494205715915655
16,6.690170566070151
17,-1.583360387547998
18,9.523568648021757
2,1, 1, 1, 0,24, 0.00,15.00,Tuesday
7,-1.7
8,0.0
9,0.0
10,0.0
11,0.0
12,0.0
13,0.0
14,9.06216504816911
15,-3.203744193176141
16,6.631775932608377
17,-1.6509505895019743
18,9.46853159478578
2,1, 1, 1, 0,24,15.00,30.00,Tuesday
7,-1.7
8,0.0
9,0.0
10,0.0
11,0.0
12,0.0
13,0.0
14,9.011744910427437
15,-3.258588386672661
16,6.577771548518399
17,-1.71529765741127
18,9.416286752526336
2,1, 1, 1, 0,24,30.00,45.00,Tuesday
7,-1.7
8,0.0
9,0.0
10,0.0
11,0.0
12,0.0
13,0.0
14,8.962553062174682
15,-3.3133255926893909
16,6.523609304320189
17,-1.779815254167488
18,9.36663356038557
2,1, 1, 1, 0,24,45.00,60.00,Tuesday
7,-1.7
8,0.0
9,0.0
10,0.0
11,0.0
12,0.0
13,0.0
14,8.914238808091485
15,-3.368067604942492
16,6.470544991576503
17,-1.8436524148598892
18,9.3184506306892
End of Data
 Number of Records Written=        1152
