Program Version,EnergyPlus, Version 9.5.0-de239b2e5f, YMD=2022.11.01 22:08
1,5,Environment Title[],Latitude[deg],Longitude[deg],Time Zone[],Elevation[m]
2,8,Day of Simulation[],Month[],Day of Month[],DST Indicator[1=yes 0=no],Hour[],StartMinute[],EndMinute[],DayType
3,5,Cumulative Day of Simulation[],Month[],Day of Month[],DST Indicator[1=yes 0=no],DayType  ! When Daily Report Variables Requested
4,2,Cumulative Days of Simulation[],Month[]  ! When Monthly Report Variables Requested
5,1,Cumulative Days of Simulation[] ! When Run Period Report Variables Requested
6,1,Calendar Year of Simulation[] ! When Annual Report Variables Requested
7,1,Environment,Site Outdoor Air Drybulb Temperature [C] !TimeStep
8,1,ZONE ONE,Zone Windows Total Transmitted Solar Radiation Rate [W] !TimeStep
9,1,ZN001:WALL001,Surface Outside Face Sunlit Fraction [] !TimeStep
10,1,ZN001:WALL001,Surface Outside Face Incident Solar Radiation Rate per Area [W/m2] !TimeStep
11,1,ZN001:WALL001:WIN001,Surface Outside Face Sunlit Fraction [] !TimeStep
12,1,ZN001:WALL001:WIN001,Surface Outside Face Incident Solar Radiation Rate per Area [W/m2] !TimeStep
13,1,ZN001:WALL001:WIN001,Surface Window Transmitted Solar Radiation Rate [W] !TimeStep
14,1,ZN001:WALL001,Surface Inside Face Temperature [C] !TimeStep
15,1,ZN001:WALL001,Surface Outside Face Temperature [C] !TimeStep
16,1,ZN001:WALL001:WIN001,Surface Inside Face Temperature [C] !TimeStep
17,1,ZN001:WALL001:WIN001,Surface Outside Face Temperature [C] !TimeStep
18,1,ZONE ONE,Zone Mean Air Temperature [C] !TimeStep
End of Data Dictionary
1,RUN PERIOD 1,  41.98, -87.92,  -6.00, 201.00
2,1, 1, 1, 0, 1, 0.00,15.00,Tuesday
7,-4.324999999999999
8,0.0
9,0.0
10,0.0
11,0.0
12,0.0
13,0.0
14,6.441212855640412
15,-5.8866369065459189
16,4.026235317552391
17,-4.293223553409916
18,6.9145479975093029
2,1, 1, 1, 0, 1,15.00,30.00,Tuesday
7,-6.949999999999999
8,0.0
9,0.0
10,0.0
11,0.0
12,0.0
13,0.0
14,6.2582292348021248
15,-8.353973653745147
16,3.4221818070432166
17,-6.380790170933892
18,6.81474579351867
2,1, 1, 1, 0, 1,30.00,45.00,Tuesday
7,-9.575
8,0.0
9,0.0
10,0.0
11,0.0
12,0.0
13,0.0
14,6.055203056394644
15,-10.829271455235532
16,2.811911904120393
17,-8.474651373645031
18,6.683269474899168
2,1, 1, 1, 0, 1,45.00,60.00,Tuesday
7,-12.2
8,0.0
9,0.0
10,0.0
11,0.0
12,0.0
13,0.0
14,5.836319609752824
15,-13.311193947637156
16,2.1867596562831297
17,-10.576143776101901
18,6.529878560054112
2,1, 1, 1, 0, 2, 0.00,15.00,Tuesday
7,-12.075
8,0.0
9,0.0
10,0.0
11,0.0
12,0.0
13,0.0
14,5.765998096161049
15,-13.112107941293337
16,2.116262985068829
17,-10.417390768234498
18,6.391615981784082
2,1, 1, 1, 0, 2,15.00,30.00,Tuesday
7,-11.95
8,0.0
9,0.0
10,0.0
11,0.0
12,0.0
13,0.0
14,5.682264445937648
15,-12.935078878424136
16,2.0805505402304904
17,-10.273059065031532
18,6.285331557862369
2,1, 1, 1, 0, 2,30.00,45.00,Tuesday
7,-11.825
8,0.0
9,0.0
10,0.0
11,0.0
12,0.0
13,0.0
14,5.615731223466023
15,-12.756893207460842
16,2.0505601637240717
17,-10.128308538669103
18,6.20549220531256
2,1, 1, 1, 0, 2,45.00,60.00,Tuesday
7,-11.7
8,0.0
9,0.0
10,0.0
11,0.0
12,0.0
13,0.0
14,5.560355014403833
15,-12.578789575664058
16,2.033264599012739
17,-9.98091720057937
18,6.141027689051432
2,1, 1, 1, 0, 3, 0.00,15.00,Tuesday
7,-11.549999999999999
8,0.0
9,0.0
10,0.0
11,0.0
12,0.0
13,0.0
14,5.506691376333172
15,-12.452265616810302
16,2.0270328328782627
17,-9.842925573818662
18,6.083091956758899
2,1, 1, 1, 0, 3,15.00,30.00,Tuesday
7,-11.399999999999999
8,0.0
9,0.0
10,0.0
11,0.0
12,0.0
13,0.0
14,5.456092590330966
15,-12.3270893835518
16,2.01564030423674
17,-9.685241141981294
18,6.027252238836828
2,1, 1, 1, 0, 3,30.00,45.00,Tuesday
7,-11.25
8,0.0
9,0.0
10,0.0
11,0.0
12,0.0
13,0.0
14,5.406418465475253
15,-12.203416811489716
16,2.012860020492724
17,-9.546161636700845
18,5.972356384459923
2,1, 1, 1, 0, 3,45.00,60.00,Tuesday
7,-11.1
8,0.0
9,0.0
10,0.0
11,0.0
12,0.0
13,0.0
14,5.357141774461167
15,-12.081297591300788
16,2.0037748539990618
17,-9.388807485217967
18,5.918210947997471
2,1, 1, 1, 0, 4, 0.00,15.00,Tuesday
7,-11.1
8,0.0
9,0.0
10,0.0
11,0.0
12,0.0
13,0.0
14,5.304164383867088
15,-12.053531131388033
16,1.9486506785978009
17,-9.427445178597737
18,5.863963453006616
2,1, 1, 1, 0, 4,15.00,30.00,Tuesday
7,-11.1
8,0.0
9,0.0
10,0.0
11,0.0
12,0.0
13,0.0
14,5.251567574210434
15,-12.026832179012898
16,1.8967415525194156
17,-9.465071918557215
18,5.8092791978971729
2,1, 1, 1, 0, 4,30.00,45.00,Tuesday
7,-11.1
8,0.0
9,0.0
10,0.0
11,0.0
12,0.0
13,0.0
14,5.198791194707914
15,-12.001635939633806
16,1.845204084626289
17,-9.50172042809072
18,5.754281890872035
2,1, 1, 1, 0, 4,45.00,60.00,Tuesday
7,-11.1
8,0.0
9,0.0
10,0.0
11,0.0
12,0.0
13,0.0
14,5.145944295667811
15,-11.977812654930644
16,1.7938669058041228
17,-9.537311086236287
18,5.699193097713608
2,1, 1, 1, 0, 5, 0.00,15.00,Tuesday
7,-10.975
8,0.0
9,0.0
10,0.0
11,0.0
12,0.0
13,0.0
14,5.098717367182744
15,-11.85590624370161
16,1.7795083573170132
17,-9.451419139952577
18,5.645233997723771
2,1, 1, 1, 0, 5,15.00,30.00,Tuesday
7,-10.85
8,0.0
9,0.0
10,0.0
11,0.0
12,0.0
13,0.0
14,5.051713327022199
15,-11.734066788077128
16,1.7629719729392264
17,-9.35746472782182
18,5.592890961472511
2,1, 1, 1, 0, 5,30.00,45.00,Tuesday
7,-10.725
8,0.0
9,0.0
10,0.0
11,0.0
12,0.0
13,0.0
14,5.005747822161427
15,-11.612204509220874
16,1.7467257761911697
17,-9.262661149132896
18,5.541930741957515
2,1, 1, 1, 0, 5,45.00,60.00,Tuesday
7,-10.6
8,0.0
9,0.0
10,0.0
11,0.0
12,0.0
13,0.0
14,4.960645342450967
15,-11.49035165810644
16,1.7312902238088555
17,-9.167620116429817
18,5.491971429893135
2,1, 1, 1, 0, 6, 0.00,15.00,Tuesday
7,-10.6
8,0.0
9,0.0
10,0.0
11,0.0
12,0.0
13,0.0
14,4.908611676945867
15,-11.49136500474518
16,1.6870186787134572
17,-9.169217578404642
18,5.441406591513951
2,1, 1, 1, 0, 6,15.00,30.00,Tuesday
7,-10.6
8,0.0
9,0.0
10,0.0
11,0.0
12,0.0
13,0.0
14,4.857214899647249
15,-11.492327859911594
16,1.6438106854770923
17,-9.177422761436958
18,5.389530384066683
2,1, 1, 1, 0, 6,30.00,45.00,Tuesday
7,-10.6
8,0.0
9,0.0
10,0.0
11,0.0
12,0.0
13,0.0
14,4.805285396155749
15,-11.493332697985379
16,1.600789908956017
17,-9.186206518223117
18,5.336629123003604
2,1, 1, 1, 0, 6,45.00,60.00,Tuesday
7,-10.6
8,0.0
9,0.0
10,0.0
11,0.0
12,0.0
13,0.0
14,4.753051637120662
15,-11.494335292497789
16,1.557412105192327
17,-9.195135641387197
18,5.283220402240135
2,1, 1, 1, 0, 7, 0.00,15.00,Tuesday
7,-10.6
8,0.0
9,0.0
10,0.0
11,0.0
12,0.0
13,0.0
14,4.702774703220905
15,-11.471375281138954
16,1.5072857818116746
17,-9.225463366694726
18,5.229964840297563
2,1, 1, 1, 0, 7,15.00,30.00,Tuesday
7,-10.6
8,0.0
9,0.0
10,0.0
11,0.0
12,0.0
13,0.0
14,4.652388369476111
15,-11.44960583149206
16,1.459072940373062
17,-9.256012305013428
18,5.177204444475644
2,1, 1, 1, 0, 7,30.00,45.00,Tuesday
7,-10.6
8,0.0
9,0.0
10,0.0
11,0.0
12,0.0
13,0.0
14,4.602299130806856
15,-11.428944784319038
16,1.4113153067287386
17,-9.285760996676004
18,5.124922082716958
2,1, 1, 1, 0, 7,45.00,60.00,Tuesday
7,-10.6
8,0.0
9,0.0
10,0.0
11,0.0
12,0.0
13,0.0
14,4.552513210195731
15,-11.40932633407625
16,1.3640626847511613
17,-9.314567158943476
18,5.073006160187266
2,1, 1, 1, 0, 8, 0.00,15.00,Tuesday
7,-10.45
8,0.0
9,0.0
10,0.0
11,0.0
12,0.0
13,0.0
14,4.5021956906235369
15,-11.359934069374514
16,1.3419638564457728
17,-9.262480373050949
18,5.0211460306552209
2,1, 1, 1, 0, 8,15.00,30.00,Tuesday
7,-10.3
8,168.06162430485444
9,1.0
10,22.819555959623899
11,1.0
12,22.819555959623899
13,168.06162430485444
14,4.574131321119921
15,-9.686223027286465
16,1.6371473071881156
17,-8.935096478358219
18,4.987971099988696
2,1, 1, 1, 0, 8,30.00,45.00,Tuesday
7,-10.15
8,825.1842598841947
9,1.0
10,109.75755355442667
11,1.0
12,109.75755355442667
13,825.1842598841947
14,4.979745826393088
15,-3.3144626371898475
16,2.897325533303558
17,-7.825657756270289
18,5.025493329036049
2,1, 1, 1, 0, 8,45.00,60.00,Tuesday
7,-10.0
8,1500.5089904439354
9,1.0
10,195.8764694434918
11,1.0
12,195.8764694434918
13,1500.5089904439354
14,5.494740350456355
15,3.166109489694606
16,4.293013188800728
17,-6.717687171864668
18,5.141176230091158
2,1, 1, 1, 0, 9, 0.00,15.00,Tuesday
7,-9.725
8,2173.5076427276937
9,1.0
10,278.97248314719988
11,1.0
12,278.97248314719988
13,2173.5076427276937
14,5.929522628426443
15,8.343839744381445
16,5.748316581446488
17,-5.708967790913846
18,5.31137414198585
2,1, 1, 1, 0, 9,15.00,30.00,Tuesday
7,-9.45
8,2882.9253434719978
9,1.0
10,364.91995730569456
11,1.0
12,364.91995730569456
13,2882.9253434719978
14,6.378416258365314
15,13.420550117471095
16,7.168337070249606
17,-4.705097486967702
18,5.527248648932858
2,1, 1, 1, 0, 9,30.00,45.00,Tuesday
7,-9.175
8,3352.273398749367
9,1.0
10,420.35879993239237
11,1.0
12,420.35879993239237
13,3352.273398749367
14,6.69848550089212
15,16.177879860093744
16,8.1232114881538
17,-4.084858804871374
18,5.768568997344504
2,1, 1, 1, 0, 9,45.00,60.00,Tuesday
7,-8.9
8,3839.49503194369
9,1.0
10,478.00138373643099
11,1.0
12,478.00138373643099
13,3839.49503194369
14,7.073188573917993
15,19.172407321643428
16,9.071192003519628
17,-3.4436305960417714
18,6.024662342915437
2,1, 1, 1, 0,10, 0.00,15.00,Tuesday
7,-8.350000000000002
8,4337.010283985082
9,1.0
10,536.9185644770597
11,1.0
12,536.9185644770597
13,4337.010283985082
14,7.395592670353813
15,20.288186021851034
16,10.050137716927054
17,-2.760919972726697
18,6.2955201155286499
2,1, 1, 1, 0,10,15.00,30.00,Tuesday
7,-7.800000000000001
8,4851.713193725648
9,1.0
10,598.0969199229219
11,1.0
12,598.0969199229219
13,4851.713193725648
14,7.747556312402531
15,21.539839574965204
16,11.04544903246574
17,-2.0790926973804177
18,6.586834557291908
2,1, 1, 1, 0,10,30.00,45.00,Tuesday
7,-7.25
8,5189.364276345323
9,1.0
10,637.6133352894237
11,1.0
12,637.6133352894237
13,5189.364276345323
14,8.022162693529515
15,21.59828688305624
16,11.77050454036521
17,-1.5965378912007964
18,6.70979563965072
2,1, 1, 1, 0,10,45.00,60.00,Tuesday
7,-6.7
8,5522.041937860184
9,1.0
10,676.6412284283772
11,1.0
12,676.6412284283772
13,5522.041937860184
14,8.275867816642244
15,21.756256443966778
16,12.443949162863249
17,-1.1202092241403535
18,6.951600753264168
2,1, 1, 1, 0,11, 0.00,15.00,Tuesday
7,-6.275
8,5848.6673445064529
9,1.0
10,715.0112779846514
11,1.0
12,715.0112779846514
13,5848.6673445064529
14,8.5778948452127
15,23.85311156477278
16,13.128932149755542
17,-0.42594571092450908
18,7.138389935391296
2,1, 1, 1, 0,11,15.00,30.00,Tuesday
7,-5.85
8,6167.604394428813
9,1.0
10,752.5077794605232
11,1.0
12,752.5077794605232
13,6167.604394428813
14,8.946142958020282
15,25.789901047190364
16,13.840284455287247
17,0.2538128777939619
18,7.575354085195471
2,1, 1, 1, 0,11,30.00,45.00,Tuesday
7,-5.425
8,6072.816809406946
9,1.0
10,742.5988714321785
11,1.0
12,742.5988714321785
13,6072.816809406946
14,9.22925258801463
15,25.643491168111628
16,14.050972652976839
17,0.5570918475591498
18,7.96185238590917
2,1, 1, 1, 0,11,45.00,60.00,Tuesday
7,-5.0
8,5937.376404957288
9,1.0
10,727.8169025450712
11,1.0
12,727.8169025450712
13,5937.376404957288
14,9.474815495409157
15,25.41448303583221
16,14.17625376410706
17,0.8298579149216039
18,8.29013923383637
2,1, 1, 1, 0,12, 0.00,15.00,Tuesday
7,-4.575
8,5704.459946432218
9,1.0
10,700.3759009170325
11,1.0
12,700.3759009170325
13,5704.459946432218
14,9.648479633380838
15,24.672359245188795
16,14.139297698996529
17,1.0454883165896263
18,8.56698378865937
2,1, 1, 1, 0,12,15.00,30.00,Tuesday
7,-4.15
8,5531.722261267596
9,1.0
10,681.6705029034473
11,1.0
12,681.6705029034473
13,5531.722261267596
14,9.807752956007003
15,24.341532518595228
16,14.155440281450865
17,1.3232324523077637
18,8.806485260741744
2,1, 1, 1, 0,12,30.00,45.00,Tuesday
7,-3.7249999999999998
8,4856.391435460682
9,1.0
10,602.01865277251
11,1.0
12,602.01865277251
13,4856.391435460682
14,9.750676137728389
15,21.31423629484552
16,13.460222368656787
17,1.1380509403254565
18,8.986382784684139
2,1, 1, 1, 0,12,45.00,60.00,Tuesday
7,-3.3
8,3966.2758888225737
9,1.0
10,493.55004396206007
11,1.0
12,493.55004396206007
13,3966.2758888225737
14,9.56137273661208
15,17.13610873496615
16,12.319662382678076
17,0.7084941441645469
18,9.08084701902931
2,1, 1, 1, 0,13, 0.00,15.00,Tuesday
7,-3.0249999999999996
8,3274.938977457191
9,1.0
10,412.335026418112
11,1.0
12,412.335026418112
13,3274.938977457191
14,9.430797623401555
15,14.292523311023498
16,11.401492412989683
17,0.41987877374725715
18,9.107082763977548
2,1, 1, 1, 0,13,15.00,30.00,Tuesday
7,-2.75
8,2398.5912604153265
9,1.0
10,305.94037763660148
11,1.0
12,305.94037763660148
13,2398.5912604153265
14,9.121211604542538
15,10.11979800652529
16,10.117486000001918
17,-0.08966361834109193
18,9.07553021156445
2,1, 1, 1, 0,13,30.00,45.00,Tuesday
7,-2.475
8,2189.8289138365919
9,1.0
10,281.0763483922329
11,1.0
12,281.0763483922329
13,2189.8289138365919
14,9.094328478973086
15,9.607829210425349
16,9.80570268189149
17,0.03504802913687399
18,9.026520780762514
2,1, 1, 1, 0,13,45.00,60.00,Tuesday
7,-2.2
8,1985.4153754700488
9,1.0
10,256.7721209415886
11,1.0
12,256.7721209415886
13,1985.4153754700488
14,9.059621045319576
15,9.001352872370104
16,9.570299882484847
17,0.1843972696532319
18,8.984690489663525
2,1, 1, 1, 0,14, 0.00,15.00,Tuesday
7,-1.9250000000000003
8,1621.882435779869
9,1.0
10,210.73276284570657
11,1.0
12,210.73276284570657
13,1621.882435779869
14,8.913665084612209
15,7.454336665294095
16,9.002711302366436
17,0.11761648248619849
18,8.947211725856914
2,1, 1, 1, 0,14,15.00,30.00,Tuesday
7,-1.6500000000000002
8,1440.7551385146033
9,1.0
10,189.38488290342594
11,1.0
12,189.38488290342594
13,1440.7551385146033
14,8.87781836353022
15,7.050341415669646
16,8.733205354088
17,0.24277618852443084
18,8.91399590378881
2,1, 1, 1, 0,14,30.00,45.00,Tuesday
7,-1.375
8,1374.0726638519873
9,1.0
10,179.3940297802914
11,1.0
12,179.3940297802914
13,1374.0726638519873
14,8.868568465830779
15,7.174074736580279
16,8.680244229468599
17,0.47999218566747006
18,8.8863314154791
2,1, 1, 1, 0,14,45.00,60.00,Tuesday
7,-1.1
8,1306.6283784824726
9,1.0
10,169.43349014176136
11,1.0
12,169.43349014176136
13,1306.6283784824726
14,8.85564295038921
15,7.273745362908313
16,8.620311584430056
17,0.7155140486879645
18,8.8635522911727
2,1, 1, 1, 0,15, 0.00,15.00,Tuesday
7,-1.1
8,1375.3083417529265
9,1.0
10,178.15692317953907
11,1.0
12,178.15692317953907
13,1375.3083417529265
14,8.920148156346901
15,8.093665345423958
16,8.757131234487304
17,0.8509256107229248
18,8.848883240142277
2,1, 1, 1, 0,15,15.00,30.00,Tuesday
7,-1.1
8,1292.0644159706613
9,1.0
10,166.40516310952945
11,1.0
12,166.40516310952945
13,1292.0644159706613
14,8.867229204126963
15,7.729639173295305
16,8.613502738005991
17,0.7987917918507037
18,8.837282282578388
2,1, 1, 1, 0,15,30.00,45.00,Tuesday
7,-1.1
8,1089.4455001386819
9,1.0
10,140.8967369711617
11,1.0
12,140.8967369711617
13,1089.4455001386819
14,8.744309145572439
15,6.522411739840371
16,8.226791587258163
17,0.5856018103083898
18,8.818242868011705
2,1, 1, 1, 0,15,45.00,60.00,Tuesday
7,-1.1
8,896.5248587243278
9,1.0
10,116.57355796743004
11,1.0
12,116.57355796743004
13,896.5248587243278
14,8.631763143131547
15,5.3173690857288389
16,7.8469644230794419
17,0.36357493168941348
18,8.780086000166286
2,1, 1, 1, 0,16, 0.00,15.00,Tuesday
7,-1.1
8,711.5332789279668
9,1.0
10,93.14939272689483
11,1.0
12,93.14939272689483
13,711.5332789279668
14,8.525743117808816
15,4.267609722741838
16,7.50887171093791
17,0.22333124403292005
18,8.721352168181067
2,1, 1, 1, 0,16,15.00,30.00,Tuesday
7,-1.1
8,441.72114884388739
9,1.0
10,57.94047897402063
11,1.0
12,57.94047897402063
13,441.72114884388739
14,8.327888749591582
15,2.145145125171835
16,6.992445388676629
17,-0.06276991320783054
18,8.634164991742623
2,1, 1, 1, 0,16,30.00,45.00,Tuesday
7,-1.1
8,342.4781811269611
9,1.0
10,45.38251793443488
11,1.0
12,45.38251793443488
13,342.4781811269611
14,8.247774677683582
15,1.5364769088126574
16,6.765860413073597
17,-0.10979136039361492
18,8.535457719411774
2,1, 1, 1, 0,16,45.00,60.00,Tuesday
7,-1.1
8,239.07245971383183
9,1.0
10,32.02625108222755
11,1.0
12,32.02625108222755
13,239.07245971383183
14,8.129084618244079
15,0.6755478428397275
16,6.552973879014246
17,-0.1602056886924288
18,8.438900031894118
2,1, 1, 1, 0,17, 0.00,15.00,Tuesday
7,-1.1
8,131.1309093080547
9,1.0
10,17.762198626050539
11,1.0
12,17.762198626050539
13,131.1309093080547
14,7.986258764012977
15,-0.5724533649292276
16,6.285675847030916
17,-0.32166942155731706
18,8.343435402828236
2,1, 1, 1, 0,17,15.00,30.00,Tuesday
7,-1.1
8,0.0
9,0.0
10,0.0
11,0.0
12,0.0
13,0.0
14,7.794049069743379
15,-2.408179382090108
16,5.946086140878037
17,-0.5975289554800156
18,8.236433986654929
2,1, 1, 1, 0,17,30.00,45.00,Tuesday
7,-1.1
8,0.0
9,0.0
10,0.0
11,0.0
12,0.0
13,0.0
14,7.735422860653251
15,-2.5425727058633957
16,5.859011938917661
17,-0.5842634243911107
18,8.13226217030946
2,1, 1, 1, 0,17,45.00,60.00,Tuesday
7,-1.1
8,0.0
9,0.0
10,0.0
11,0.0
12,0.0
13,0.0
14,7.661150616224744
15,-2.7308831476021666
16,5.813055292507158
17,-0.5549399166915237
18,8.04449982770017
2,1, 1, 1, 0,18, 0.00,15.00,Tuesday
7,-1.25
8,0.0
9,0.0
10,0.0
11,0.0
12,0.0
13,0.0
14,7.598328040627355
15,-2.8790707871604517
16,5.721514758956118
17,-0.6957619953102494
18,7.973770418693224
2,1, 1, 1, 0,18,15.00,30.00,Tuesday
7,-1.4
8,0.0
9,0.0
10,0.0
11,0.0
12,0.0
13,0.0
14,7.540897582169288
15,-3.0315101737130485
16,5.644070945485453
17,-0.8274088687646781
18,7.914752983173779
2,1, 1, 1, 0,18,30.00,45.00,Tuesday
7,-1.5499999999999999
8,0.0
9,0.0
10,0.0
11,0.0
12,0.0
13,0.0
14,7.487683357574487
15,-3.183527027308862
16,5.570985759957239
17,-0.95830112988682
18,7.862057190578296
2,1, 1, 1, 0,18,45.00,60.00,Tuesday
7,-1.7
8,0.0
9,0.0
10,0.0
11,0.0
12,0.0
13,0.0
14,7.436494453223706
15,-3.3357121553115038
16,5.502991895660443
17,-1.0832691292773689
18,7.812307902674812
2,1, 1, 1, 0,19, 0.00,15.00,Tuesday
7,-1.825
8,0.0
9,0.0
10,0.0
11,0.0
12,0.0
13,0.0
14,7.4096424515721319
15,-3.1925563736796356
16,5.4211239215131858
17,-1.2494938359885169
18,7.767358453991656
2,1, 1, 1, 0,19,15.00,30.00,Tuesday
7,-1.9500000000000002
8,0.0
9,0.0
10,0.0
11,0.0
12,0.0
13,0.0
14,7.381647060050886
15,-3.1302309368432046
16,5.355094874607914
17,-1.4012959692888672
18,7.728992364548368
2,1, 1, 1, 0,19,30.00,45.00,Tuesday
7,-2.075
8,0.0
9,0.0
10,0.0
11,0.0
12,0.0
13,0.0
14,7.349352517154649
15,-3.205245437230795
16,5.303322954663145
17,-1.5188847962321007
18,7.695819947607014
2,1, 1, 1, 0,19,45.00,60.00,Tuesday
7,-2.2
8,0.0
9,0.0
10,0.0
11,0.0
12,0.0
13,0.0
14,7.319871938744405
15,-3.1869350129222164
16,5.241780784969706
17,-1.664316985687151
18,7.6647929685417319
2,1, 1, 1, 0,20, 0.00,15.00,Tuesday
7,-1.9250000000000003
8,0.0
9,0.0
10,0.0
11,0.0
12,0.0
13,0.0
14,7.306140331252196
15,-2.8867348429773429
16,5.279628315752234
17,-1.4601109262481487
18,7.636442296758111
2,1, 1, 1, 0,20,15.00,30.00,Tuesday
7,-1.6500000000000002
8,0.0
9,0.0
10,0.0
11,0.0
12,0.0
13,0.0
14,7.292874693244561
15,-2.5894301475392949
16,5.3158740269677768
17,-1.2443632392080418
18,7.6113312827851609
2,1, 1, 1, 0,20,30.00,45.00,Tuesday
7,-1.375
8,0.0
9,0.0
10,0.0
11,0.0
12,0.0
13,0.0
14,7.28140312206364
15,-2.29336643205377
16,5.3537539492389218
17,-1.026271684202868
18,7.5890844326763
2,1, 1, 1, 0,20,45.00,60.00,Tuesday
7,-1.1
8,0.0
9,0.0
10,0.0
11,0.0
12,0.0
13,0.0
14,7.271510915017721
15,-1.9985271094812354
16,5.393683483218297
17,-0.8059889089209946
18,7.568999682249111
2,1, 1, 1, 0,21, 0.00,15.00,Tuesday
7,-1.25
8,0.0
9,0.0
10,0.0
11,0.0
12,0.0
13,0.0
14,7.22145935076194
15,-2.2756317000203305
16,5.353014848189446
17,-0.8816908713340581
18,7.544361184712077
2,1, 1, 1, 0,21,15.00,30.00,Tuesday
7,-1.4
8,0.0
9,0.0
10,0.0
11,0.0
12,0.0
13,0.0
14,7.172128903209444
15,-2.4900659387224137
16,5.2982159818890299
17,-0.9788698873908288
18,7.510535080336349
2,1, 1, 1, 0,21,30.00,45.00,Tuesday
7,-1.5499999999999999
8,0.0
9,0.0
10,0.0
11,0.0
12,0.0
13,0.0
14,7.109699400394022
15,-2.8290472133627455
16,5.249526089863934
17,-1.0467156797953408
18,7.4667485077013648
2,1, 1, 1, 0,21,45.00,60.00,Tuesday
7,-1.7
8,0.0
9,0.0
10,0.0
11,0.0
12,0.0
13,0.0
14,7.041993742769484
15,-3.2748109333308599
16,5.201593401491891
17,-1.0858938515501678
18,7.41529804333267
2,1, 1, 1, 0,22, 0.00,15.00,Tuesday
7,-1.5499999999999999
8,0.0
9,0.0
10,0.0
11,0.0
12,0.0
13,0.0
14,7.0412784863571729
15,-2.7945073318949267
16,5.16639181945493
17,-1.0616186198178639
18,7.369586177616018
2,1, 1, 1, 0,22,15.00,30.00,Tuesday
7,-1.4
8,0.0
9,0.0
10,0.0
11,0.0
12,0.0
13,0.0
14,7.030509711404384
15,-2.46929951904375
16,5.165994897356768
17,-1.0000418800324269
18,7.336771317056175
2,1, 1, 1, 0,22,30.00,45.00,Tuesday
7,-1.25
8,0.0
9,0.0
10,0.0
11,0.0
12,0.0
13,0.0
14,7.018892882172718
15,-2.2514090956954138
16,5.176030498900957
17,-0.906570427549866
18,7.314512040077673
2,1, 1, 1, 0,22,45.00,60.00,Tuesday
7,-1.1
8,0.0
9,0.0
10,0.0
11,0.0
12,0.0
13,0.0
14,7.011219715957556
15,-1.9728340774233165
16,5.184162071095216
17,-0.8223175061176562
18,7.297508871263796
2,1, 1, 1, 0,23, 0.00,15.00,Tuesday
7,-1.25
8,0.0
9,0.0
10,0.0
11,0.0
12,0.0
13,0.0
14,6.959585860890712
15,-2.27614408861063
16,5.09218420139905
17,-1.0986663448776995
18,7.275191421366717
2,1, 1, 1, 0,23,15.00,30.00,Tuesday
7,-1.4
8,0.0
9,0.0
10,0.0
11,0.0
12,0.0
13,0.0
14,6.91113207418893
15,-2.5807641530495815
16,4.988103999582336
17,-1.3909015857881855
18,7.242564746686437
2,1, 1, 1, 0,23,30.00,45.00,Tuesday
7,-1.5499999999999999
8,0.0
9,0.0
10,0.0
11,0.0
12,0.0
13,0.0
14,6.857828828843612
15,-2.8860702072333055
16,4.882278426037146
17,-1.6849359449004738
18,7.200950641134304
2,1, 1, 1, 0,23,45.00,60.00,Tuesday
7,-1.7
8,0.0
9,0.0
10,0.0
11,0.0
12,0.0
13,0.0
14,6.80061915262997
15,-3.1917158603900215
16,4.7720969323595459
17,-1.9817214310460259
18,7.153411048156928
2,1, 1, 1, 0,24, 0.00,15.00,Tuesday
7,-1.7
8,0.0
9,0.0
10,0.0
11,0.0
12,0.0
13,0.0
14,6.759316424740713
15,-3.2458541364231516
16,4.720020038808173
17,-2.046160390103296
18,7.1055484920350919
2,1, 1, 1, 0,24,15.00,30.00,Tuesday
7,-1.7
8,0.0
9,0.0
10,0.0
11,0.0
12,0.0
13,0.0
14,6.715936894287929
15,-3.300579224330464
16,4.672068244554225
17,-2.1083559147955954
18,7.060294127904854
2,1, 1, 1, 0,24,30.00,45.00,Tuesday
7,-1.7
8,0.0
9,0.0
10,0.0
11,0.0
12,0.0
13,0.0
14,6.6736729541204709
15,-3.3551965662722686
16,4.623987504431398
17,-2.1704827938715427
18,7.017576844014283
2,1, 1, 1, 0,24,45.00,60.00,Tuesday
7,-1.7
8,0.0
9,0.0
10,0.0
11,0.0
12,0.0
13,0.0
14,6.632236877470131
15,-3.40981705397545
16,4.576842752405923
17,-2.232287462111344
18,6.976347509260268
End of Data
 Number of Records Written=        1152
