Program Version,EnergyPlus, Version 9.5.0-de239b2e5f, YMD=2022.11.01 22:08
1,5,Environment Title[],Latitude[deg],Longitude[deg],Time Zone[],Elevation[m]
2,8,Day of Simulation[],Month[],Day of Month[],DST Indicator[1=yes 0=no],Hour[],StartMinute[],EndMinute[],DayType
3,5,Cumulative Day of Simulation[],Month[],Day of Month[],DST Indicator[1=yes 0=no],DayType  ! When Daily Report Variables Requested
4,2,Cumulative Days of Simulation[],Month[]  ! When Monthly Report Variables Requested
5,1,Cumulative Days of Simulation[] ! When Run Period Report Variables Requested
6,1,Calendar Year of Simulation[] ! When Annual Report Variables Requested
7,1,Environment,Site Outdoor Air Drybulb Temperature [C] !TimeStep
8,1,ZONE ONE,Zone Windows Total Transmitted Solar Radiation Rate [W] !TimeStep
9,1,ZN001:WALL001,Surface Outside Face Sunlit Fraction [] !TimeStep
10,1,ZN001:WALL001,Surface Outside Face Incident Solar Radiation Rate per Area [W/m2] !TimeStep
11,1,ZN001:WALL001:WIN001,Surface Outside Face Sunlit Fraction [] !TimeStep
12,1,ZN001:WALL001:WIN001,Surface Outside Face Incident Solar Radiation Rate per Area [W/m2] !TimeStep
13,1,ZN001:WALL001:WIN001,Surface Window Transmitted Solar Radiation Rate [W] !TimeStep
14,1,ZN001:WALL001,Surface Inside Face Temperature [C] !TimeStep
15,1,ZN001:WALL001,Surface Outside Face Temperature [C] !TimeStep
16,1,ZN001:WALL001:WIN001,Surface Inside Face Temperature [C] !TimeStep
17,1,ZN001:WALL001:WIN001,Surface Outside Face Temperature [C] !TimeStep
18,1,ZONE ONE,Zone Mean Air Temperature [C] !TimeStep
End of Data Dictionary
1,RUN PERIOD 1,  41.98, -87.92,  -6.00, 201.00
2,1, 1, 1, 0, 1, 0.00,15.00,Tuesday
7,-4.324999999999999
8,0.0
9,0.0
10,0.0
11,0.0
12,0.0
13,0.0
14,-0.006178703741452747
15,-6.0043300379233799
16,-1.2647261383333444
17,-5.386313424484513
18,0.2989966764947496
2,1, 1, 1, 0, 1,15.00,30.00,Tuesday
7,-6.949999999999999
8,0.0
9,0.0
10,0.0
11,0.0
12,0.0
13,0.0
14,-0.1777649993143644
15,-8.472269580765844
16,-1.8895405395233525
17,-7.4739971756159779
18,0.22039256799524288
2,1, 1, 1, 0, 1,30.00,45.00,Tuesday
7,-9.575
8,0.0
9,0.0
10,0.0
11,0.0
12,0.0
13,0.0
14,-0.37029839040374837
15,-10.948980898261642
16,-2.5136541384556496
17,-9.568335821933772
18,0.1081147823582672
2,1, 1, 1, 0, 1,45.00,60.00,Tuesday
7,-12.2
8,0.0
9,0.0
10,0.0
11,0.0
12,0.0
13,0.0
14,-0.5792900368096873
15,-13.432158158410948
16,-3.150772731298275
17,-11.671248404931362
18,-0.028953612817342508
2,1, 1, 1, 0, 2, 0.00,15.00,Tuesday
7,-12.075
8,0.0
9,0.0
10,0.0
11,0.0
12,0.0
13,0.0
14,-0.6283107799256439
15,-13.234006324390196
16,-3.2093007861786875
17,-11.529326503525568
18,-0.15348481336062687
2,1, 1, 1, 0, 2,15.00,30.00,Tuesday
7,-11.95
8,0.0
9,0.0
10,0.0
11,0.0
12,0.0
13,0.0
14,-0.6937999767168882
15,-13.056638267824934
16,-3.2258264196831307
17,-11.380029018513426
18,-0.24685274844703462
2,1, 1, 1, 0, 2,30.00,45.00,Tuesday
7,-11.825
8,0.0
9,0.0
10,0.0
11,0.0
12,0.0
13,0.0
14,-0.7424086426766153
15,-12.878007597196067
16,-3.2381060364755287
17,-11.230388803888559
18,-0.31278160956985048
2,1, 1, 1, 0, 2,45.00,60.00,Tuesday
7,-11.7
8,0.0
9,0.0
10,0.0
11,0.0
12,0.0
13,0.0
14,-0.7795026658410293
15,-12.699431779904707
16,-3.234036235394342
17,-11.087927417422464
18,-0.3615101093118435
2,1, 1, 1, 0, 3, 0.00,15.00,Tuesday
7,-11.549999999999999
8,0.0
9,0.0
10,0.0
11,0.0
12,0.0
13,0.0
14,-0.8149749909808809
15,-12.57578994844348
16,-3.231145631326683
17,-10.953550093735999
18,-0.4021845528994968
2,1, 1, 1, 0, 3,15.00,30.00,Tuesday
7,-11.399999999999999
8,0.0
9,0.0
10,0.0
11,0.0
12,0.0
13,0.0
14,-0.8467636572742757
15,-12.453618939545889
16,-3.2260348759139108
17,-10.8198062955953
18,-0.4397278691106112
2,1, 1, 1, 0, 3,30.00,45.00,Tuesday
7,-11.25
8,0.0
9,0.0
10,0.0
11,0.0
12,0.0
13,0.0
14,-0.8774057067647156
15,-12.333099092137035
16,-3.218920037368889
17,-10.686245332103283
18,-0.4758487127172428
2,1, 1, 1, 0, 3,45.00,60.00,Tuesday
7,-11.1
8,0.0
9,0.0
10,0.0
11,0.0
12,0.0
13,0.0
14,-0.9074451845869589
15,-12.214293305930403
16,-3.211097282414812
17,-10.553164237038402
18,-0.5109497155875965
2,1, 1, 1, 0, 4, 0.00,15.00,Tuesday
7,-11.1
8,0.0
9,0.0
10,0.0
11,0.0
12,0.0
13,0.0
14,-0.9409366199204863
15,-12.182355166145849
16,-3.2471227384749
17,-10.561372844878577
18,-0.5458545841425531
2,1, 1, 1, 0, 4,15.00,30.00,Tuesday
7,-11.1
8,0.0
9,0.0
10,0.0
11,0.0
12,0.0
13,0.0
14,-0.974014655368943
15,-12.151654530346866
16,-3.278388723918397
17,-10.576630371917134
18,-0.5809204342548107
2,1, 1, 1, 0, 4,30.00,45.00,Tuesday
7,-11.1
8,0.0
9,0.0
10,0.0
11,0.0
12,0.0
13,0.0
14,-1.007190400324456
15,-12.122650812330244
16,-3.3089846742060446
17,-10.592053125373014
18,-0.6161271064766396
2,1, 1, 1, 0, 4,45.00,60.00,Tuesday
7,-11.1
8,0.0
9,0.0
10,0.0
11,0.0
12,0.0
13,0.0
14,-1.0404136496557633
15,-12.095208496047638
16,-3.339415070225755
17,-10.607011595190216
18,-0.6513591571772345
2,1, 1, 1, 0, 5, 0.00,15.00,Tuesday
7,-10.975
8,0.0
9,0.0
10,0.0
11,0.0
12,0.0
13,0.0
14,-1.0669368572963312
15,-11.972825974390345
16,-3.3364056703441635
17,-10.517291586678198
18,-0.6854775286676502
2,1, 1, 1, 0, 5,15.00,30.00,Tuesday
7,-10.85
8,0.0
9,0.0
10,0.0
11,0.0
12,0.0
13,0.0
14,-1.0942377788041875
15,-11.850586901625992
16,-3.3346597928797907
17,-10.419830117789559
18,-0.7180667162277967
2,1, 1, 1, 0, 5,30.00,45.00,Tuesday
7,-10.725
8,0.0
9,0.0
10,0.0
11,0.0
12,0.0
13,0.0
14,-1.1205468332413138
15,-11.728290461973435
16,-3.3329143161689105
17,-10.32161049818626
18,-0.7493802099643891
2,1, 1, 1, 0, 5,45.00,60.00,Tuesday
7,-10.6
8,0.0
9,0.0
10,0.0
11,0.0
12,0.0
13,0.0
14,-1.1460872541493484
15,-11.60600777059728
16,-3.3304424408969455
17,-10.223164657906864
18,-0.7797769995186017
2,1, 1, 1, 0, 6, 0.00,15.00,Tuesday
7,-10.6
8,0.0
9,0.0
10,0.0
11,0.0
12,0.0
13,0.0
14,-1.18008149609659
15,-11.60671632840259
16,-3.355842084593178
17,-10.22370326024702
18,-0.8108229531122624
2,1, 1, 1, 0, 6,15.00,30.00,Tuesday
7,-10.6
8,0.0
9,0.0
10,0.0
11,0.0
12,0.0
13,0.0
14,-1.2125575541680305
15,-11.607287061892722
16,-3.3831033212574086
17,-10.228146375914094
18,-0.8432533873990977
2,1, 1, 1, 0, 6,30.00,45.00,Tuesday
7,-10.6
8,0.0
9,0.0
10,0.0
11,0.0
12,0.0
13,0.0
14,-1.245677094368228
15,-11.60793934411447
16,-3.410055777077446
17,-10.233425672443787
18,-0.8768174281370359
2,1, 1, 1, 0, 6,45.00,60.00,Tuesday
7,-10.6
8,0.0
9,0.0
10,0.0
11,0.0
12,0.0
13,0.0
14,-1.279155779038014
15,-11.6085879285821
16,-3.437315966309825
17,-10.239098556461727
18,-0.9110168291967803
2,1, 1, 1, 0, 7, 0.00,15.00,Tuesday
7,-10.6
8,0.0
9,0.0
10,0.0
11,0.0
12,0.0
13,0.0
14,-1.309340055761739
15,-11.582279697872897
16,-3.466865447862631
17,-10.249515266936442
18,-0.9449962545203027
2,1, 1, 1, 0, 7,15.00,30.00,Tuesday
7,-10.6
8,0.0
9,0.0
10,0.0
11,0.0
12,0.0
13,0.0
14,-1.3417518201825123
15,-11.557369404238968
16,-3.4947742830509584
17,-10.26030513703256
18,-0.978535078218891
2,1, 1, 1, 0, 7,30.00,45.00,Tuesday
7,-10.6
8,0.0
9,0.0
10,0.0
11,0.0
12,0.0
13,0.0
14,-1.3717658649278482
15,-11.533647508848953
16,-3.5228065019693988
17,-10.271224874013342
18,-1.0115642864495034
2,1, 1, 1, 0, 7,45.00,60.00,Tuesday
7,-10.6
8,0.0
9,0.0
10,0.0
11,0.0
12,0.0
13,0.0
14,-1.4026578542399125
15,-11.51118754809412
16,-3.5499419735482435
17,-10.28168826456124
18,-1.0441939134874965
2,1, 1, 1, 0, 8, 0.00,15.00,Tuesday
7,-10.45
8,0.0
9,0.0
10,0.0
11,0.0
12,0.0
13,0.0
14,-1.435525346163252
15,-11.46402014473959
16,-3.558972846540712
17,-10.251873707839423
18,-1.077075551692634
2,1, 1, 1, 0, 8,15.00,30.00,Tuesday
7,-10.3
8,50.76196854265299
9,1.0
10,22.819555959623899
11,1.0
12,22.819555959623899
13,50.76196854265299
14,-1.3666882732719735
15,-9.79144096658734
16,-3.161779561231583
17,-9.861808644418602
18,-1.0968276903248154
2,1, 1, 1, 0, 8,30.00,45.00,Tuesday
7,-10.15
8,250.65925009928714
9,1.0
10,109.75755355442667
11,1.0
12,109.75755355442667
13,250.65925009928714
14,-1.0248429277689933
15,-3.437012581495462
16,-1.5083466398820065
17,-8.495372569615313
18,-1.067483661680835
2,1, 1, 1, 0, 8,45.00,60.00,Tuesday
7,-10.0
8,459.6493174860307
9,1.0
10,195.8764694434918
11,1.0
12,195.8764694434918
13,459.6493174860307
14,-0.6026360428994499
15,3.0580365960286288
16,0.25283372400178907
17,-7.142914240415394
18,-0.9835941274954732
2,1, 1, 1, 0, 9, 0.00,15.00,Tuesday
7,-9.725
8,671.6346205450398
9,1.0
10,278.97248314719988
11,1.0
12,278.97248314719988
13,671.6346205450398
14,-0.2878775999788839
15,8.241402231596608
16,1.800275414539783
17,-5.96563682677106
18,-0.8548632390561826
2,1, 1, 1, 0, 9,15.00,30.00,Tuesday
7,-9.45
8,898.642034035053
9,1.0
10,364.91995730569456
11,1.0
12,364.91995730569456
13,898.642034035053
14,0.05779581100855455
15,13.323416692072128
16,3.339104891103375
17,-4.79919509392181
18,-0.6884944484728237
2,1, 1, 1, 0, 9,30.00,45.00,Tuesday
7,-9.175
8,1053.3010246664324
9,1.0
10,420.35879993239237
11,1.0
12,420.35879993239237
13,1053.3010246664324
14,0.28862841463536506
15,16.083835353014046
16,4.350520910526257
17,-4.085109368390363
18,-0.5026854901271465
2,1, 1, 1, 0, 9,45.00,60.00,Tuesday
7,-8.9
8,1214.9578081882392
9,1.0
10,478.00138373643099
11,1.0
12,478.00138373643099
13,1214.9578081882392
14,0.5624589317742382
15,19.079808802640306
16,5.36961063041349
17,-3.3423579262185969
18,-0.3050628267977435
2,1, 1, 1, 0,10, 0.00,15.00,Tuesday
7,-8.350000000000002
8,1380.9731418021948
9,1.0
10,536.9185644770597
11,1.0
12,536.9185644770597
13,1380.9731418021948
14,0.7744086063046555
15,20.20205626195702
16,6.416786378200413
17,-2.568134923774778
18,-0.09210333521484522
2,1, 1, 1, 0,10,15.00,30.00,Tuesday
7,-7.800000000000001
8,1553.2106491557157
9,1.0
10,598.0969199229219
11,1.0
12,598.0969199229219
13,1553.2106491557157
14,1.0095946341737006
15,21.458567515592845
16,7.484279581560202
17,-1.7990958117505898
18,0.1331722439791394
2,1, 1, 1, 0,10,30.00,45.00,Tuesday
7,-7.25
8,1669.015592142529
9,1.0
10,637.6133352894237
11,1.0
12,637.6133352894237
13,1669.015592142529
14,1.1791731459861057
15,21.521462259982806
16,8.227232661887797
17,-1.273285393297499
18,0.3569662607375226
2,1, 1, 1, 0,10,45.00,60.00,Tuesday
7,-6.7
8,1783.1103114878502
9,1.0
10,676.6412284283772
11,1.0
12,676.6412284283772
13,1783.1103114878502
14,1.362592722727794
15,21.6841796190038
16,8.94582336314869
17,-0.7531709614248712
18,0.5714021504331461
2,1, 1, 1, 0,11, 0.00,15.00,Tuesday
7,-6.275
8,1895.0499805978739
9,1.0
10,715.0112779846514
11,1.0
12,715.0112779846514
13,1895.0499805978739
14,1.623196042478658
15,23.781255296884379
16,9.700872131823246
17,0.005124262564777382
18,0.7805330828770737
2,1, 1, 1, 0,11,15.00,30.00,Tuesday
7,-5.85
8,2004.213517970733
9,1.0
10,752.5077794605232
11,1.0
12,752.5077794605232
13,2004.213517970733
14,1.8685712051024897
15,25.715916929496016
16,10.442031308315223
17,0.7399985477204609
18,0.9893182379074371
2,1, 1, 1, 0,11,30.00,45.00,Tuesday
7,-5.425
8,1975.0523880121103
9,1.0
10,742.5988714321785
11,1.0
12,742.5988714321785
13,1975.0523880121103
14,1.9991372852523018
15,25.567611012783158
16,10.513251380242082
17,1.0125051250449815
18,1.183595230209285
2,1, 1, 1, 0,11,45.00,60.00,Tuesday
7,-5.0
8,1931.6060747233974
9,1.0
10,727.8169025450712
11,1.0
12,727.8169025450712
13,1931.6060747233974
14,2.126333756022614
15,25.33778668972115
16,10.493123831641242
17,1.2473298366148243
18,1.3537943055204292
2,1, 1, 1, 0,12, 0.00,15.00,Tuesday
7,-4.575
8,1856.3883785683855
9,1.0
10,700.3759009170325
11,1.0
12,700.3759009170325
13,1856.3883785683855
14,2.208633366462001
15,24.59468915255208
16,10.297688546879329
17,1.4062689127121644
18,1.49584832924337
2,1, 1, 1, 0,12,15.00,30.00,Tuesday
7,-4.15
8,1798.4539766249548
9,1.0
10,681.6705029034473
11,1.0
12,681.6705029034473
13,1798.4539766249548
14,2.308247474453051
15,24.263718154678679
16,10.20870022475168
17,1.6449785379367086
18,1.616388861731575
2,1, 1, 1, 0,12,30.00,45.00,Tuesday
7,-3.7249999999999998
8,1575.2565620179908
9,1.0
10,602.01865277251
11,1.0
12,602.01865277251
13,1575.2565620179908
14,2.217366730511815
15,21.235197440822249
16,9.255841535300079
17,1.3222822962491705
18,1.6997613171341975
2,1, 1, 1, 0,12,45.00,60.00,Tuesday
7,-3.3
8,1284.3965186716583
9,1.0
10,493.55004396206007
11,1.0
12,493.55004396206007
13,1284.3965186716583
14,2.040751190832469
15,17.05616764911027
16,7.817233610994435
17,0.711415439386883
18,1.7315830314112919
2,1, 1, 1, 0,13, 0.00,15.00,Tuesday
7,-3.0249999999999996
8,1054.6780343016265
9,1.0
10,412.335026418112
11,1.0
12,412.335026418112
13,1054.6780343016265
14,1.9208863168753048
15,14.210820695313132
16,6.699043949758391
17,0.28596516526692997
18,1.720240410366143
2,1, 1, 1, 0,13,15.00,30.00,Tuesday
7,-2.75
8,767.5813638832815
9,1.0
10,305.94037763660148
11,1.0
12,305.94037763660148
13,767.5813638832815
14,1.6916537390628864
15,10.03681202049597
16,5.1625541282883209
17,-0.40491458585637477
18,1.668493523722749
2,1, 1, 1, 0,13,30.00,45.00,Tuesday
7,-2.475
8,698.3855975959341
9,1.0
10,281.0763483922329
11,1.0
12,281.0763483922329
13,698.3855975959341
14,1.6719518757412862
15,9.522801417329946
16,4.826942214629071
17,-0.3243206571308974
18,1.6081747142561025
2,1, 1, 1, 0,13,45.00,60.00,Tuesday
7,-2.2
8,630.6192468874593
9,1.0
10,256.7721209415886
11,1.0
12,256.7721209415886
13,630.6192468874593
14,1.6432212591348592
15,8.915678254722833
16,4.529263276985205
17,-0.22276319129429113
18,1.5597553466013266
2,1, 1, 1, 0,14, 0.00,15.00,Tuesday
7,-1.9250000000000003
8,513.7043218921342
9,1.0
10,210.73276284570657
11,1.0
12,210.73276284570657
13,513.7043218921342
14,1.5510321418268938
15,7.366489682450999
16,3.868670653685797
17,-0.3795939321350943
18,1.518776130779851
2,1, 1, 1, 0,14,15.00,30.00,Tuesday
7,-1.6500000000000002
8,453.6982063230313
9,1.0
10,189.38488290342594
11,1.0
12,189.38488290342594
13,453.6982063230313
14,1.5312319070231464
15,6.958985959230423
16,3.5830588726350358
17,-0.302847296439154
18,1.4847640541579153
2,1, 1, 1, 0,14,30.00,45.00,Tuesday
7,-1.375
8,433.5150932582277
9,1.0
10,179.3940297802914
11,1.0
12,179.3940297802914
13,433.5150932582277
14,1.537434351776765
15,7.078335067811562
16,3.4999211319736789
17,-0.10113701120451424
18,1.4590958931748593
2,1, 1, 1, 0,14,45.00,60.00,Tuesday
7,-1.1
8,412.76925792695797
9,1.0
10,169.43349014176136
11,1.0
12,169.43349014176136
13,412.76925792695797
14,1.5400530630267786
15,7.17472565673301
16,3.415646885374713
17,0.0983988629502619
18,1.441216822758159
2,1, 1, 1, 0,15, 0.00,15.00,Tuesday
7,-1.1
8,433.880289323754
9,1.0
10,178.15692317953907
11,1.0
12,178.15692317953907
13,433.880289323754
14,1.5852273769979204
15,7.988173783343211
16,3.568383494976615
17,0.2353328752985817
18,1.4327991039771904
2,1, 1, 1, 0,15,15.00,30.00,Tuesday
7,-1.1
8,407.4571381480034
9,1.0
10,166.40516310952945
11,1.0
12,166.40516310952945
13,407.4571381480034
14,1.5547739062455775
15,7.624336605893057
16,3.3874477456838578
17,0.14172011789446516
18,1.428148871193668
2,1, 1, 1, 0,15,30.00,45.00,Tuesday
7,-1.1
8,342.2491659704566
9,1.0
10,140.8967369711617
11,1.0
12,140.8967369711617
13,342.2491659704566
14,1.4747234142783015
15,6.415895064168004
16,2.951966335024281
17,-0.14936441263819234
18,1.416099532484188
2,1, 1, 1, 0,15,45.00,60.00,Tuesday
7,-1.1
8,280.45708129525226
9,1.0
10,116.57355796743004
11,1.0
12,116.57355796743004
13,280.45708129525226
14,1.3899746835179344
15,5.203300307955379
16,2.511422340786851
17,-0.43975810453542865
18,1.3903018245237638
2,1, 1, 1, 0,16, 0.00,15.00,Tuesday
7,-1.1
8,221.59671660703425
9,1.0
10,93.14939272689483
11,1.0
12,93.14939272689483
13,221.59671660703425
14,1.2999921255047809
15,4.1349085397048939
16,2.092649703941106
17,-0.6779493097689056
18,1.3519525016469949
2,1, 1, 1, 0,16,15.00,30.00,Tuesday
7,-1.1
8,136.95090341310894
9,1.0
10,57.94047897402063
11,1.0
12,57.94047897402063
13,136.95090341310894
14,1.15172410863319
15,2.0105376921384607
16,1.412591233751698
17,-1.120662689388837
18,1.2986522962208163
2,1, 1, 1, 0,16,30.00,45.00,Tuesday
7,-1.1
8,105.66028633239901
9,1.0
10,45.38251793443488
11,1.0
12,45.38251793443488
13,105.66028633239901
14,1.0993591420828848
15,1.390699797908782
16,1.1243970047023595
17,-1.2722833557912737
18,1.2378629544218632
2,1, 1, 1, 0,16,45.00,60.00,Tuesday
7,-1.1
8,73.44109927469681
9,1.0
10,32.02625108222755
11,1.0
12,32.02625108222755
13,73.44109927469681
14,1.0159947694263485
15,0.5153456133424031
16,0.8453365113020936
17,-1.4409179852789294
18,1.175202829794013
2,1, 1, 1, 0,17, 0.00,15.00,Tuesday
7,-1.1
8,40.163374769864507
9,1.0
10,17.762198626050539
11,1.0
12,17.762198626050539
13,40.163374769864507
14,0.9042902099263472
15,-0.7522888298637867
16,0.5119513145438077
17,-1.7385226672104182
18,1.1079850000622314
2,1, 1, 1, 0,17,15.00,30.00,Tuesday
7,-1.1
8,0.0
9,0.0
10,0.0
11,0.0
12,0.0
13,0.0
14,0.7457124671787219
15,-2.596320050617471
16,0.11393765191792227
17,-2.0694940761756586
18,1.0260369069726383
2,1, 1, 1, 0,17,30.00,45.00,Tuesday
7,-1.1
8,0.0
9,0.0
10,0.0
11,0.0
12,0.0
13,0.0
14,0.707194759120096
15,-2.7388731444419629
16,0.026597593808560306
17,-2.1441895745969079
18,0.9392103164320006
2,1, 1, 1, 0,17,45.00,60.00,Tuesday
7,-1.1
8,0.0
9,0.0
10,0.0
11,0.0
12,0.0
13,0.0
14,0.6508782904891214
15,-2.942897137293763
16,-0.030779081291143485
17,-2.2245369595576678
18,0.8622769695280551
2,1, 1, 1, 0,18, 0.00,15.00,Tuesday
7,-1.25
8,0.0
9,0.0
10,0.0
11,0.0
12,0.0
13,0.0
14,0.6056837525571069
15,-3.0890500863767995
16,-0.10729917989732485
17,-2.3645791828529356
18,0.800451477247805
2,1, 1, 1, 0,18,15.00,30.00,Tuesday
7,-1.4
8,0.0
9,0.0
10,0.0
11,0.0
12,0.0
13,0.0
14,0.5656223149771397
15,-3.2414407205458426
16,-0.17286489895053593
17,-2.4948333593034706
18,0.7518027155231553
2,1, 1, 1, 0,18,30.00,45.00,Tuesday
7,-1.5499999999999999
8,0.0
9,0.0
10,0.0
11,0.0
12,0.0
13,0.0
14,0.5289723970311109
15,-3.3931670782993188
16,-0.23226414801104057
17,-2.6188533612782978
18,0.7120160498754422
2,1, 1, 1, 0,18,45.00,60.00,Tuesday
7,-1.7
8,0.0
9,0.0
10,0.0
11,0.0
12,0.0
13,0.0
14,0.4950678521257758
15,-3.5449509295190184
16,-0.290952988810659
17,-2.7479117373608235
18,0.6774722560477057
2,1, 1, 1, 0,19, 0.00,15.00,Tuesday
7,-1.825
8,0.0
9,0.0
10,0.0
11,0.0
12,0.0
13,0.0
14,0.48994157301840537
15,-3.377736000330499
16,-0.3143639008438299
17,-2.7590654179223295
18,0.6497305584370121
2,1, 1, 1, 0,19,15.00,30.00,Tuesday
7,-1.9500000000000002
8,0.0
9,0.0
10,0.0
11,0.0
12,0.0
13,0.0
14,0.48578692506050538
15,-3.2941982848130344
16,-0.33069888942486616
17,-2.781520194123914
18,0.6302005949582984
2,1, 1, 1, 0,19,30.00,45.00,Tuesday
7,-2.075
8,0.0
9,0.0
10,0.0
11,0.0
12,0.0
13,0.0
14,0.47589888943778088
15,-3.3634715656818789
16,-0.3613972165932182
17,-2.8630298554634239
18,0.617080582550254
2,1, 1, 1, 0,19,45.00,60.00,Tuesday
7,-2.2
8,0.0
9,0.0
10,0.0
11,0.0
12,0.0
13,0.0
14,0.4682426885136952
15,-3.3264122201310308
16,-0.3774321356444261
17,-2.906680362758152
18,0.6072491686205068
2,1, 1, 1, 0,20, 0.00,15.00,Tuesday
7,-1.9250000000000003
8,0.0
9,0.0
10,0.0
11,0.0
12,0.0
13,0.0
14,0.4769820155481343
15,-3.0214097794485994
16,-0.3124093210001888
17,-2.6685169067369545
18,0.6003371462793792
2,1, 1, 1, 0,20,15.00,30.00,Tuesday
7,-1.6500000000000002
8,0.0
9,0.0
10,0.0
11,0.0
12,0.0
13,0.0
14,0.4868419704173525
15,-2.719824620847655
16,-0.24676367447307258
17,-2.4245521941737708
18,0.5964867243367145
2,1, 1, 1, 0,20,30.00,45.00,Tuesday
7,-1.375
8,0.0
9,0.0
10,0.0
11,0.0
12,0.0
13,0.0
14,0.4990169600747875
15,-2.419707938124278
16,-0.17934285545294416
17,-2.1792060940105104
18,0.5954462965800828
2,1, 1, 1, 0,20,45.00,60.00,Tuesday
7,-1.1
8,0.0
9,0.0
10,0.0
11,0.0
12,0.0
13,0.0
14,0.5123279541857294
15,-2.1210354375989697
16,-0.10981205070834221
17,-1.9325622946206523
18,0.5966586683265425
2,1, 1, 1, 0,21, 0.00,15.00,Tuesday
7,-1.25
8,0.0
9,0.0
10,0.0
11,0.0
12,0.0
13,0.0
14,0.4800393522958913
15,-2.4176339511450597
16,-0.16658317574024296
17,-2.1191062046076469
18,0.5942302449841562
2,1, 1, 1, 0,21,15.00,30.00,Tuesday
7,-1.4
8,0.0
9,0.0
10,0.0
11,0.0
12,0.0
13,0.0
14,0.4449382018118401
15,-2.6423138019418377
16,-0.2251868241800139
17,-2.2649550161119125
18,0.5830880089987656
2,1, 1, 1, 0,21,30.00,45.00,Tuesday
7,-1.5499999999999999
8,0.0
9,0.0
10,0.0
11,0.0
12,0.0
13,0.0
14,0.396881448734232
15,-3.0065423565245519
16,-0.3008847149628764
17,-2.467711257044357
18,0.5612011732284599
2,1, 1, 1, 0,21,45.00,60.00,Tuesday
7,-1.7
8,0.0
9,0.0
10,0.0
11,0.0
12,0.0
13,0.0
14,0.34375415837673586
15,-3.4810646686971258
16,-0.38915067962261676
17,-2.7076296619561619
18,0.5299135303986281
2,1, 1, 1, 0,22, 0.00,15.00,Tuesday
7,-1.5499999999999999
8,0.0
9,0.0
10,0.0
11,0.0
12,0.0
13,0.0
14,0.3679291292851317
15,-2.9665089370820407
16,-0.34615237430620029
17,-2.469904245404848
18,0.502980011055174
2,1, 1, 1, 0,22,15.00,30.00,Tuesday
7,-1.4
8,0.0
9,0.0
10,0.0
11,0.0
12,0.0
13,0.0
14,0.38378110549464408
15,-2.618043895782121
16,-0.2896481225322418
17,-2.268665417799525
18,0.4885251584647319
2,1, 1, 1, 0,22,30.00,45.00,Tuesday
7,-1.25
8,0.0
9,0.0
10,0.0
11,0.0
12,0.0
13,0.0
14,0.39547621510251
15,-2.389725563025302
16,-0.24106565021588723
17,-2.120050112765284
18,0.48506784319565346
2,1, 1, 1, 0,22,45.00,60.00,Tuesday
7,-1.1
8,0.0
9,0.0
10,0.0
11,0.0
12,0.0
13,0.0
14,0.4118857636189332
15,-2.0922950959557018
16,-0.18518028497351225
17,-1.9176346810985479
18,0.4879326391080287
2,1, 1, 1, 0,23, 0.00,15.00,Tuesday
7,-1.25
8,0.0
9,0.0
10,0.0
11,0.0
12,0.0
13,0.0
14,0.38020813408955808
15,-2.396349311796648
16,-0.2669332443923622
17,-2.1974323049427086
18,0.48787132763282267
2,1, 1, 1, 0,23,15.00,30.00,Tuesday
7,-1.4
8,0.0
9,0.0
10,0.0
11,0.0
12,0.0
13,0.0
14,0.34770230148995
15,-2.7009461736238604
16,-0.3608949872313474
17,-2.4862442805418825
18,0.4790601054343366
2,1, 1, 1, 0,23,30.00,45.00,Tuesday
7,-1.5499999999999999
8,0.0
9,0.0
10,0.0
11,0.0
12,0.0
13,0.0
14,0.31246701861607675
15,-3.0059720468269339
16,-0.4563614591567102
17,-2.775191897889272
18,0.46120164693416756
2,1, 1, 1, 0,23,45.00,60.00,Tuesday
7,-1.7
8,0.0
9,0.0
10,0.0
11,0.0
12,0.0
13,0.0
14,0.2727615415349809
15,-3.311379759704344
16,-0.5544798081079989
17,-3.06455952494008
18,0.43631092555354747
2,1, 1, 1, 0,24, 0.00,15.00,Tuesday
7,-1.7
8,0.0
9,0.0
10,0.0
11,0.0
12,0.0
13,0.0
14,0.2527438425543306
15,-3.364855364101243
16,-0.5899026052408658
17,-3.122174904934184
18,0.40960067954367476
2,1, 1, 1, 0,24,15.00,30.00,Tuesday
7,-1.7
8,0.0
9,0.0
10,0.0
11,0.0
12,0.0
13,0.0
14,0.22954375720443599
15,-3.419281284152604
16,-0.6210775752459199
17,-3.179491121987496
18,0.3843709378136087
2,1, 1, 1, 0,24,30.00,45.00,Tuesday
7,-1.7
8,0.0
9,0.0
10,0.0
11,0.0
12,0.0
13,0.0
14,0.20682926980463008
15,-3.4735673175748897
16,-0.653000051124252
17,-3.237102605851476
18,0.36114220713576658
2,1, 1, 1, 0,24,45.00,60.00,Tuesday
7,-1.7
8,0.0
9,0.0
10,0.0
11,0.0
12,0.0
13,0.0
14,0.1846282057510385
15,-3.5278499496211559
16,-0.6843950448932787
17,-3.294537155524665
18,0.3392805697408537
End of Data
 Number of Records Written=        1152
