Program Version,EnergyPlus, Version 9.5.0-de239b2e5f, YMD=2022.11.01 22:08
1,5,Environment Title[],Latitude[deg],Longitude[deg],Time Zone[],Elevation[m]
2,8,Day of Simulation[],Month[],Day of Month[],DST Indicator[1=yes 0=no],Hour[],StartMinute[],EndMinute[],DayType
3,5,Cumulative Day of Simulation[],Month[],Day of Month[],DST Indicator[1=yes 0=no],DayType  ! When Daily Report Variables Requested
4,2,Cumulative Days of Simulation[],Month[]  ! When Monthly Report Variables Requested
5,1,Cumulative Days of Simulation[] ! When Run Period Report Variables Requested
6,1,Calendar Year of Simulation[] ! When Annual Report Variables Requested
7,1,Environment,Site Outdoor Air Drybulb Temperature [C] !TimeStep
8,1,ZONE ONE,Zone Windows Total Transmitted Solar Radiation Rate [W] !TimeStep
9,1,ZN001:WALL001,Surface Outside Face Sunlit Fraction [] !TimeStep
10,1,ZN001:WALL001,Surface Outside Face Incident Solar Radiation Rate per Area [W/m2] !TimeStep
11,1,ZN001:WALL001:WIN001,Surface Outside Face Sunlit Fraction [] !TimeStep
12,1,ZN001:WALL001:WIN001,Surface Outside Face Incident Solar Radiation Rate per Area [W/m2] !TimeStep
13,1,ZN001:WALL001:WIN001,Surface Window Transmitted Solar Radiation Rate [W] !TimeStep
14,1,ZN001:WALL001,Surface Inside Face Temperature [C] !TimeStep
15,1,ZN001:WALL001,Surface Outside Face Temperature [C] !TimeStep
16,1,ZN001:WALL001:WIN001,Surface Inside Face Temperature [C] !TimeStep
17,1,ZN001:WALL001:WIN001,Surface Outside Face Temperature [C] !TimeStep
18,1,ZONE ONE,Zone Mean Air Temperature [C] !TimeStep
End of Data Dictionary
1,RUN PERIOD 1,  41.98, -87.92,  -6.00, 201.00
2,1, 1, 1, 0, 1, 0.00,15.00,Tuesday
7,-4.324999999999999
8,0.0
9,0.0
10,0.0
11,0.0
12,0.0
13,0.0
14,3.4436917962218098
15,-5.941225169792293
16,1.5515276030740779
17,-4.8002544581401029
18,3.8408243794512124
2,1, 1, 1, 0, 1,15.00,30.00,Tuesday
7,-6.949999999999999
8,0.0
9,0.0
10,0.0
11,0.0
12,0.0
13,0.0
14,3.265701729829147
15,-8.408998265929574
16,0.9397112646314554
17,-6.887944264427915
18,3.7506714050681815
2,1, 1, 1, 0, 1,30.00,45.00,Tuesday
7,-9.575
8,0.0
9,0.0
10,0.0
11,0.0
12,0.0
13,0.0
14,3.067865764974684
15,-10.884922252802362
16,0.3239178969377008
17,-8.982233249034153
18,3.627995994224805
2,1, 1, 1, 0, 1,45.00,60.00,Tuesday
7,-12.2
8,0.0
9,0.0
10,0.0
11,0.0
12,0.0
13,0.0
14,2.8542111243766437
15,-13.367431059836085
16,-0.30596976820538659
17,-11.084485399507912
18,3.482316456195051
2,1, 1, 1, 0, 2, 0.00,15.00,Tuesday
7,-12.075
8,0.0
9,0.0
10,0.0
11,0.0
12,0.0
13,0.0
14,2.7932755344416817
15,-13.168786085429514
16,-0.37038804966528007
17,-10.932488451634982
18,3.350733447278667
2,1, 1, 1, 0, 2,15.00,30.00,Tuesday
7,-11.95
8,0.0
9,0.0
10,0.0
11,0.0
12,0.0
13,0.0
14,2.718118277223336
15,-12.991575371963624
16,-0.3973289491420928
17,-10.785892554098269
18,3.2508209447558489
2,1, 1, 1, 0, 2,30.00,45.00,Tuesday
7,-11.825
8,0.0
9,0.0
10,0.0
11,0.0
12,0.0
13,0.0
14,2.6600050568043644
15,-12.813182226321765
16,-0.41902466408595276
17,-10.638917272112565
18,3.1778095088446998
2,1, 1, 1, 0, 2,45.00,60.00,Tuesday
7,-11.7
8,0.0
9,0.0
10,0.0
11,0.0
12,0.0
13,0.0
14,2.613206520706576
15,-12.634856879630755
16,-0.42807089266023015
17,-10.489284252147059
18,3.120940338460321
2,1, 1, 1, 0, 3, 0.00,15.00,Tuesday
7,-11.549999999999999
8,0.0
9,0.0
10,0.0
11,0.0
12,0.0
13,0.0
14,2.568124717929545
15,-12.509673918909698
16,-0.42830654392378167
17,-10.35686529897248
18,3.071250630076564
2,1, 1, 1, 0, 3,15.00,30.00,Tuesday
7,-11.399999999999999
8,0.0
9,0.0
10,0.0
11,0.0
12,0.0
13,0.0
14,2.5263963861836267
15,-12.385896267627599
16,-0.4294566606053536
17,-10.215820994472097
18,3.0241265285598479
2,1, 1, 1, 0, 3,30.00,45.00,Tuesday
7,-11.25
8,0.0
9,0.0
10,0.0
11,0.0
12,0.0
13,0.0
14,2.4856387859090378
15,-12.263690458240836
16,-0.4291850016511489
17,-10.073914739053294
18,2.9781074548310095
2,1, 1, 1, 0, 3,45.00,60.00,Tuesday
7,-11.1
8,0.0
9,0.0
10,0.0
11,0.0
12,0.0
13,0.0
14,2.4454082395282814
15,-12.143115650045156
16,-0.42828402036855098
17,-9.93213678912565
18,2.932943803362672
2,1, 1, 1, 0, 4, 0.00,15.00,Tuesday
7,-11.1
8,0.0
9,0.0
10,0.0
11,0.0
12,0.0
13,0.0
14,2.401525682937663
15,-12.11340341913455
16,-0.4765023012644747
17,-9.952252143874489
18,2.887761997449959
2,1, 1, 1, 0, 4,15.00,30.00,Tuesday
7,-11.1
8,0.0
9,0.0
10,0.0
11,0.0
12,0.0
13,0.0
14,2.358047274972599
15,-12.084840918031146
16,-0.5191096993804081
17,-9.979447086521362
18,2.842229911795221
2,1, 1, 1, 0, 4,30.00,45.00,Tuesday
7,-11.1
8,0.0
9,0.0
10,0.0
11,0.0
12,0.0
13,0.0
14,2.3144108278263717
15,-12.057872004634023
16,-0.5609756804492463
17,-10.006511585399835
18,2.796448204680843
2,1, 1, 1, 0, 4,45.00,60.00,Tuesday
7,-11.1
8,0.0
9,0.0
10,0.0
11,0.0
12,0.0
13,0.0
14,2.270709255501134
15,-12.032363994779829
16,-0.602637451333635
17,-10.032797076176735
18,2.750602845784807
2,1, 1, 1, 0, 5, 0.00,15.00,Tuesday
7,-10.975
8,0.0
9,0.0
10,0.0
11,0.0
12,0.0
13,0.0
14,2.2326769772835175
15,-11.910237983214414
16,-0.6088577630105192
17,-9.945106357018404
18,2.705832139246315
2,1, 1, 1, 0, 5,15.00,30.00,Tuesday
7,-10.85
8,0.0
9,0.0
10,0.0
11,0.0
12,0.0
13,0.0
14,2.1948415226531807
15,-11.788197572524624
16,-0.6169946293681505
17,-9.849531659258674
18,2.6626098672370337
2,1, 1, 1, 0, 5,30.00,45.00,Tuesday
7,-10.725
8,0.0
9,0.0
10,0.0
11,0.0
12,0.0
13,0.0
14,2.1579873050328239
15,-11.666135882817079
16,-0.6248694530212902
17,-9.7531190736089
18,2.620729758344279
2,1, 1, 1, 0, 5,45.00,60.00,Tuesday
7,-10.6
8,0.0
9,0.0
10,0.0
11,0.0
12,0.0
13,0.0
14,2.1219587289551926
15,-11.544083962778718
16,-0.6319785943528586
17,-9.656477134833552
18,2.579831684982066
2,1, 1, 1, 0, 6, 0.00,15.00,Tuesday
7,-10.6
8,0.0
9,0.0
10,0.0
11,0.0
12,0.0
13,0.0
14,2.0787718381572777
15,-11.544952749598462
16,-0.6656877214752512
17,-9.659422706500778
18,2.5384290871491008
2,1, 1, 1, 0, 6,15.00,30.00,Tuesday
7,-10.6
8,0.0
9,0.0
10,0.0
11,0.0
12,0.0
13,0.0
14,2.0361688766006149
15,-11.545746232075615
16,-0.7038909683579391
17,-9.663338570731753
18,2.4956383921120048
2,1, 1, 1, 0, 6,30.00,45.00,Tuesday
7,-10.6
8,0.0
9,0.0
10,0.0
11,0.0
12,0.0
13,0.0
14,1.9930346626038727
15,-11.546586163089727
16,-0.7394751018313173
17,-9.670307369438888
18,2.4517207798366287
2,1, 1, 1, 0, 6,45.00,60.00,Tuesday
7,-10.6
8,0.0
9,0.0
10,0.0
11,0.0
12,0.0
13,0.0
14,1.9495408374233796
15,-11.54742463920298
16,-0.7752864406357958
17,-9.677734326552184
18,2.4072213235387358
2,1, 1, 1, 0, 7, 0.00,15.00,Tuesday
7,-10.6
8,0.0
9,0.0
10,0.0
11,0.0
12,0.0
13,0.0
14,1.908139204363812
15,-11.522907600449605
16,-0.8158198984958744
17,-9.699599266738119
18,2.3628596709055396
2,1, 1, 1, 0, 7,15.00,30.00,Tuesday
7,-10.6
8,0.0
9,0.0
10,0.0
11,0.0
12,0.0
13,0.0
14,1.86659020290248
15,-11.499661341563997
16,-0.8547059439044915
17,-9.721491034389544
18,2.3190030801212617
2,1, 1, 1, 0, 7,30.00,45.00,Tuesday
7,-10.6
8,0.0
9,0.0
10,0.0
11,0.0
12,0.0
13,0.0
14,1.8253204493983873
15,-11.477594474764129
16,-0.8932277683346683
17,-9.742772175264293
18,2.2756325724368806
2,1, 1, 1, 0, 7,45.00,60.00,Tuesday
7,-10.6
8,0.0
9,0.0
10,0.0
11,0.0
12,0.0
13,0.0
14,1.7843405319285486
15,-11.45663746298562
16,-0.9313108166043662
17,-9.763331747594464
18,2.2326261954243726
2,1, 1, 1, 0, 8, 0.00,15.00,Tuesday
7,-10.45
8,0.0
9,0.0
10,0.0
11,0.0
12,0.0
13,0.0
14,1.7425845720213394
15,-11.408283550186069
16,-0.9479878806798752
17,-9.716567478058892
18,2.1895938607998266
2,1, 1, 1, 0, 8,15.00,30.00,Tuesday
7,-10.3
8,113.15769859672013
9,1.0
10,22.819555959623899
11,1.0
12,22.819555959623899
13,113.15769859672013
14,1.8132307901720347
15,-9.735115291375326
16,-0.6028237349484584
17,-9.363232179515763
18,2.1627518739163609
2,1, 1, 1, 0, 8,30.00,45.00,Tuesday
7,-10.15
8,555.8522440582076
9,1.0
10,109.75755355442667
11,1.0
12,109.75755355442667
13,555.8522440582076
14,2.189660490688525
15,-3.371057073132573
16,0.8389644312020437
17,-8.12862383018529
18,2.1968497823195367
2,1, 1, 1, 0, 8,45.00,60.00,Tuesday
7,-10.0
8,1011.5868634531793
9,1.0
10,195.8764694434918
11,1.0
12,195.8764694434918
13,1011.5868634531793
14,2.686058930377974
15,3.1362708713998255
16,2.4622696417659428
17,-6.878655855150896
18,2.2967687628398849
2,1, 1, 1, 0, 9, 0.00,15.00,Tuesday
7,-9.725
8,1466.6040451198474
9,1.0
10,278.97248314719988
11,1.0
12,278.97248314719988
13,1466.6040451198474
14,3.0394816130359327
15,8.292584023804354
16,3.9765045844566204
17,-5.7802484793647299
18,2.4469313500892095
2,1, 1, 1, 0, 9,15.00,30.00,Tuesday
7,-9.45
8,1947.1723786598882
9,1.0
10,364.91995730569456
11,1.0
12,364.91995730569456
13,1947.1723786598882
14,3.4442056387518864
15,13.37600667480701
16,5.464896249631352
17,-4.6885737653214509
18,2.639302243155329
2,1, 1, 1, 0, 9,30.00,45.00,Tuesday
7,-9.175
8,2266.400106926853
9,1.0
10,420.35879993239237
11,1.0
12,420.35879993239237
13,2266.400106926853
14,3.7223217758041335
15,16.134119803678347
16,6.458396840766511
17,-4.01421536554966
18,2.854326988480189
2,1, 1, 1, 0, 9,45.00,60.00,Tuesday
7,-8.9
8,2598.264523874065
9,1.0
10,478.00138373643099
11,1.0
12,478.00138373643099
13,2598.264523874065
14,4.050085052320439
15,19.129411863822843
16,7.4506160287234028
17,-3.316211044327929
18,3.0819544287735147
2,1, 1, 1, 0,10, 0.00,15.00,Tuesday
7,-8.350000000000002
8,2937.6247750025588
9,1.0
10,536.9185644770597
11,1.0
12,536.9185644770597
13,2937.6247750025588
14,4.3209324002826039
15,20.248173372403494
16,8.469099227375182
17,-2.5874837880626275
18,3.322904526000463
2,1, 1, 1, 0,10,15.00,30.00,Tuesday
7,-7.800000000000001
8,3289.0986736071456
9,1.0
10,598.0969199229219
11,1.0
12,598.0969199229219
13,3289.0986736071456
14,4.617419677154429
15,21.502054709674938
16,9.50345360613369
17,-1.8634506847119497
18,3.585326931273064
2,1, 1, 1, 0,10,30.00,45.00,Tuesday
7,-7.25
8,3520.849559773718
9,1.0
10,637.6133352894237
11,1.0
12,637.6133352894237
13,3520.849559773718
14,4.844033169866708
15,21.562640487421793
16,10.238125436315614
17,-1.3630349187709499
18,3.8552178284289586
2,1, 1, 1, 0,10,45.00,60.00,Tuesday
7,-6.7
8,3749.3648653782495
9,1.0
10,676.6412284283772
11,1.0
12,676.6412284283772
13,3749.3648653782495
14,5.091371117965812
15,21.723512100534327
16,10.947367286426584
17,-0.8668439346189416
18,4.1212048802329239
2,1, 1, 1, 0,11, 0.00,15.00,Tuesday
7,-6.275
8,3973.825024106619
9,1.0
10,715.0112779846514
11,1.0
12,715.0112779846514
13,3973.825024106619
14,5.41522110038236
15,23.821139274145549
16,11.696538309456969
17,-0.1370963079904186
18,4.385538039970539
2,1, 1, 1, 0,11,15.00,30.00,Tuesday
7,-5.85
8,4193.0262292346919
9,1.0
10,752.5077794605232
11,1.0
12,752.5077794605232
13,4193.0262292346919
14,5.726820680130197
15,25.756209651645777
16,12.436444899001004
17,0.5717387404068859
18,4.652599992978957
2,1, 1, 1, 0,11,30.00,45.00,Tuesday
7,-5.425
8,4129.787833583478
9,1.0
10,742.5988714321785
11,1.0
12,742.5988714321785
13,4129.787833583478
14,5.907918697570626
15,25.6080990299282
16,12.560150448571563
17,0.8545420594758184
18,4.905706232499289
2,1, 1, 1, 0,11,45.00,60.00,Tuesday
7,-5.0
8,4038.4088982907717
9,1.0
10,727.8169025450712
11,1.0
12,727.8169025450712
13,4038.4088982907717
14,6.08460108413051
15,25.378899685625645
16,12.5957908012806
17,1.1039818478363373
18,5.13275601629675
2,1, 1, 1, 0,12, 0.00,15.00,Tuesday
7,-4.575
8,3880.530234833326
9,1.0
10,700.3759009170325
11,1.0
12,700.3759009170325
13,3880.530234833326
14,6.206394750469751
15,24.63629720563384
16,12.470718478481502
17,1.2883893734440335
18,5.327332861443558
2,1, 1, 1, 0,12,15.00,30.00,Tuesday
7,-4.15
8,3762.749224539221
9,1.0
10,681.6705029034473
11,1.0
12,681.6705029034473
13,3762.749224539221
14,6.349234012628022
15,24.30584946838288
16,12.436996380042956
17,1.5456372188966726
18,5.496943093487978
2,1, 1, 1, 0,12,30.00,45.00,Tuesday
7,-3.7249999999999998
8,3302.39753114729
9,1.0
10,602.01865277251
11,1.0
12,602.01865277251
13,3302.39753114729
14,6.266248670112192
15,21.27752758749862
16,11.608186305250456
17,1.2872855559750179
18,5.621344409968958
2,1, 1, 1, 0,12,45.00,60.00,Tuesday
7,-3.3
8,2696.4812502006009
9,1.0
10,493.55004396206007
11,1.0
12,493.55004396206007
13,2696.4812502006009
14,6.080637687437723
15,17.099058912690205
16,10.309379530819456
17,0.7616274230354634
18,5.678694579941068
2,1, 1, 1, 0,13, 0.00,15.00,Tuesday
7,-3.0249999999999996
8,2224.682943129246
9,1.0
10,412.335026418112
11,1.0
12,412.335026418112
13,2224.682943129246
14,5.94866530745799
15,14.254610980195486
16,9.28436293426762
17,0.4001595662813884
18,5.682676764715642
2,1, 1, 1, 0,13,15.00,30.00,Tuesday
7,-2.75
8,1627.8644276179617
9,1.0
10,305.94037763660148
11,1.0
12,305.94037763660148
13,1627.8644276179617
14,5.664374358828073
15,10.081299898376902
16,7.867662119109866
17,-0.204674128216368
18,5.642890360779686
2,1, 1, 1, 0,13,30.00,45.00,Tuesday
7,-2.475
8,1485.4012601929308
9,1.0
10,281.0763483922329
11,1.0
12,281.0763483922329
13,1485.4012601929308
14,5.645662060749311
15,9.56775390493443
16,7.537132344640213
17,-0.10373205927766094
18,5.590557274572291
2,1, 1, 1, 0,13,45.00,60.00,Tuesday
7,-2.2
8,1345.9090128625499
9,1.0
10,256.7721209415886
11,1.0
12,256.7721209415886
13,1345.9090128625499
14,5.613774178235357
15,8.961434580460468
16,7.274234420937546
17,0.02176252814797408
18,5.545597172967054
2,1, 1, 1, 0,14, 0.00,15.00,Tuesday
7,-1.9250000000000003
8,1098.9759751155153
9,1.0
10,210.73276284570657
11,1.0
12,210.73276284570657
13,1098.9759751155153
14,5.492127558904269
15,7.41329912871107
16,6.668121526578432
17,-0.08890252615390182
18,5.504809197599295
2,1, 1, 1, 0,14,15.00,30.00,Tuesday
7,-1.6500000000000002
8,975.4428254513734
9,1.0
10,189.38488290342594
11,1.0
12,189.38488290342594
13,975.4428254513734
14,5.463147261452358
15,7.007013062901568
16,6.39438161595865
17,0.012696313855883546
18,5.469090157908244
2,1, 1, 1, 0,14,30.00,45.00,Tuesday
7,-1.375
8,930.4281387204735
9,1.0
10,179.3940297802914
11,1.0
12,179.3940297802914
13,930.4281387204735
14,5.461777067310125
15,7.129666126250692
16,6.327336754676139
17,0.2340430005962162
18,5.439896754518335
2,1, 1, 1, 0,14,45.00,60.00,Tuesday
7,-1.1
8,884.7856375183176
9,1.0
10,169.43349014176136
11,1.0
12,169.43349014176136
13,884.7856375183176
14,5.458117218385771
15,7.22788510148845
16,6.255627785184572
17,0.45352077486336386
18,5.417235776304116
2,1, 1, 1, 0,15, 0.00,15.00,Tuesday
7,-1.1
8,931.0170289018245
9,1.0
10,178.15692317953907
11,1.0
12,178.15692317953907
13,931.0170289018245
14,5.512731654103
15,8.044018981099577
16,6.40063978590922
17,0.591518442268125
18,5.40405330999158
2,1, 1, 1, 0,15,15.00,30.00,Tuesday
7,-1.1
8,874.4725948460155
9,1.0
10,166.40516310952945
11,1.0
12,166.40516310952945
13,874.4725948460155
14,5.469797185737671
15,7.680742064009717
16,6.239984019899794
17,0.5207406469981493
18,5.394826029170804
2,1, 1, 1, 0,15,30.00,45.00,Tuesday
7,-1.1
8,736.934174216377
9,1.0
10,140.8967369711617
11,1.0
12,140.8967369711617
13,736.934174216377
14,5.366432246176827
15,6.473500829255088
16,5.8177919795762709
17,0.27075873378419149
18,5.378474730638421
2,1, 1, 1, 0,15,45.00,60.00,Tuesday
7,-1.1
8,606.102694950391
9,1.0
10,116.57355796743004
11,1.0
12,116.57355796743004
13,606.102694950391
14,5.257213398216331
15,5.2607456766446349
16,5.373383533687047
17,0.004553086932332917
18,5.346899271674447
2,1, 1, 1, 0,16, 0.00,15.00,Tuesday
7,-1.1
8,480.7838601651085
9,1.0
10,93.14939272689483
11,1.0
12,93.14939272689483
13,480.7838601651085
14,5.1659607772043298
15,4.210446731061066
16,4.963983251089132
17,-0.18875691732898759
18,5.300007602135527
2,1, 1, 1, 0,16,15.00,30.00,Tuesday
7,-1.1
8,298.2966169069532
9,1.0
10,57.94047897402063
11,1.0
12,57.94047897402063
13,298.2966169069532
14,4.990212129264904
15,2.0828139449272764
16,4.365155035877933
17,-0.5532334698208388
18,5.231867157951064
2,1, 1, 1, 0,16,30.00,45.00,Tuesday
7,-1.1
8,231.16303769903818
9,1.0
10,45.38251793443488
11,1.0
12,45.38251793443488
13,231.16303769903818
14,4.924103942524109
15,1.4688220445191143
16,4.119366081276894
17,-0.6429586215244854
18,5.151255633484587
2,1, 1, 1, 0,16,45.00,60.00,Tuesday
7,-1.1
8,161.30301267499415
9,1.0
10,32.02625108222755
11,1.0
12,32.02625108222755
13,161.30301267499415
14,4.822913571963766
15,0.6012436434418991
16,3.880583052702036
17,-0.7463396116057766
18,5.065576668326111
2,1, 1, 1, 0,17, 0.00,15.00,Tuesday
7,-1.1
8,88.45471009834752
9,1.0
10,17.762198626050539
11,1.0
12,17.762198626050539
13,88.45471009834752
14,4.692398059351016
15,-0.6559972137022635
16,3.583362387499051
17,-0.9723039802797757
18,4.976676252120676
2,1, 1, 1, 0,17,15.00,30.00,Tuesday
7,-1.1
8,0.0
9,0.0
10,0.0
11,0.0
12,0.0
13,0.0
14,4.513370772866958
15,-2.4958649431415145
16,3.2119078191716428
17,-1.2898150348102036
18,4.876536667865615
2,1, 1, 1, 0,17,30.00,45.00,Tuesday
7,-1.1
8,0.0
9,0.0
10,0.0
11,0.0
12,0.0
13,0.0
14,4.461842232276373
15,-2.6342800345906736
16,3.1200981585936349
17,-1.3311792751572967
18,4.779357927272129
2,1, 1, 1, 0,17,45.00,60.00,Tuesday
7,-1.1
8,0.0
9,0.0
10,0.0
11,0.0
12,0.0
13,0.0
14,4.395924712049604
15,-2.8299150290022956
16,3.0652800763116376
17,-1.367221015027667
18,4.697828918700536
2,1, 1, 1, 0,18, 0.00,15.00,Tuesday
7,-1.25
8,0.0
9,0.0
10,0.0
11,0.0
12,0.0
13,0.0
14,4.34159104996537
15,-2.9771420297160509
16,2.9783329974438859
17,-1.5103552577384108
18,4.633118658168238
2,1, 1, 1, 0,18,15.00,30.00,Tuesday
7,-1.4
8,0.0
9,0.0
10,0.0
11,0.0
12,0.0
13,0.0
14,4.292360773636573
15,-3.1295224108366637
16,2.9077364256544344
17,-1.6389774097618216
18,4.580612970226761
2,1, 1, 1, 0,18,30.00,45.00,Tuesday
7,-1.5499999999999999
8,0.0
9,0.0
10,0.0
11,0.0
12,0.0
13,0.0
14,4.247412671377059
15,-3.281356422946699
16,2.8409111911275888
17,-1.7677481609229063
18,4.535216651618364
2,1, 1, 1, 0,18,45.00,60.00,Tuesday
7,-1.7
8,0.0
9,0.0
10,0.0
11,0.0
12,0.0
13,0.0
14,4.204668092043039
15,-3.43335991944605
16,2.7771126089384099
17,-1.8955624178480549
18,4.493507335237539
2,1, 1, 1, 0,19, 0.00,15.00,Tuesday
7,-1.825
8,0.0
9,0.0
10,0.0
11,0.0
12,0.0
13,0.0
14,4.1883743487740079
15,-3.27889140728955
16,2.7317625281581288
17,-1.9646375439601798
18,4.457382331196825
2,1, 1, 1, 0,19,15.00,30.00,Tuesday
7,-1.9500000000000002
8,0.0
9,0.0
10,0.0
11,0.0
12,0.0
13,0.0
14,4.171294551606074
15,-3.2066022383343566
16,2.68874052426537
17,-2.052381836632037
18,4.42849857427307
2,1, 1, 1, 0,19,30.00,45.00,Tuesday
7,-2.075
8,0.0
9,0.0
10,0.0
11,0.0
12,0.0
13,0.0
14,4.149279820225629
15,-3.278891652075669
16,2.6473683078290834
17,-2.1509672658954175
18,4.405214825663896
2,1, 1, 1, 0,19,45.00,60.00,Tuesday
7,-2.2
8,0.0
9,0.0
10,0.0
11,0.0
12,0.0
13,0.0
14,4.130440186326075
15,-3.251828419936743
16,2.607068172725974
17,-2.247188797698982
18,4.384479062424016
2,1, 1, 1, 0,20, 0.00,15.00,Tuesday
7,-1.9250000000000003
8,0.0
9,0.0
10,0.0
11,0.0
12,0.0
13,0.0
14,4.1281849946382549
15,-2.949443179887406
16,2.6560643021584839
17,-2.031038347004369
18,4.366547549917477
2,1, 1, 1, 0,20,15.00,30.00,Tuesday
7,-1.6500000000000002
8,0.0
9,0.0
10,0.0
11,0.0
12,0.0
13,0.0
14,4.125859888938643
15,-2.650196177581398
16,2.7058894691454045
17,-1.8025098553684985
18,4.351809262074189
2,1, 1, 1, 0,20,30.00,45.00,Tuesday
7,-1.375
8,0.0
9,0.0
10,0.0
11,0.0
12,0.0
13,0.0
14,4.1252192826003439
15,-2.3522613830620449
16,2.75717671623795
17,-1.571823597717298
18,4.339863988873309
2,1, 1, 1, 0,20,45.00,60.00,Tuesday
7,-1.1
8,0.0
9,0.0
10,0.0
11,0.0
12,0.0
13,0.0
14,4.1260909403370269
15,-2.0556436900160848
16,2.8103982199205577
17,-1.3392544713374264
18,4.330049272419382
2,1, 1, 1, 0,21, 0.00,15.00,Tuesday
7,-1.25
8,0.0
9,0.0
10,0.0
11,0.0
12,0.0
13,0.0
14,4.083437859384735
15,-2.341702452036493
16,2.761748319200592
17,-1.4628367912361569
18,4.315691094820404
2,1, 1, 1, 0,21,15.00,30.00,Tuesday
7,-1.4
8,0.0
9,0.0
10,0.0
11,0.0
12,0.0
13,0.0
14,4.041899697502526
15,-2.5608656016948818
16,2.7071899912194796
17,-1.586827461608209
18,4.2920669251940579
2,1, 1, 1, 0,21,30.00,45.00,Tuesday
7,-1.5499999999999999
8,0.0
9,0.0
10,0.0
11,0.0
12,0.0
13,0.0
14,3.9865156762860054
15,-2.911693670055581
16,2.647270915659135
17,-1.7202985776909259
18,4.258031354339032
2,1, 1, 1, 0,21,45.00,60.00,Tuesday
7,-1.7
8,0.0
9,0.0
10,0.0
11,0.0
12,0.0
13,0.0
14,3.925661043590775
15,-3.3710332279585595
16,2.572664466619017
17,-1.8741660706224366
18,4.2155224930873189
2,1, 1, 1, 0,22, 0.00,15.00,Tuesday
7,-1.5499999999999999
8,0.0
9,0.0
10,0.0
11,0.0
12,0.0
13,0.0
14,3.9365218002767468
15,-2.8747216174861047
16,2.5819315840932406
17,-1.7380121462898615
18,4.1784824127755029
2,1, 1, 1, 0,22,15.00,30.00,Tuesday
7,-1.4
8,0.0
9,0.0
10,0.0
11,0.0
12,0.0
13,0.0
14,3.9379490615803895
15,-2.5386275701631986
16,2.608584596392973
17,-1.6062644084585714
18,4.154566594135448
2,1, 1, 1, 0,22,30.00,45.00,Tuesday
7,-1.25
8,0.0
9,0.0
10,0.0
11,0.0
12,0.0
13,0.0
14,3.9374270794309087
15,-2.315875153151662
16,2.6343829307760986
17,-1.4820274357732615
18,4.1416508395251079
2,1, 1, 1, 0,22,45.00,60.00,Tuesday
7,-1.1
8,0.0
9,0.0
10,0.0
11,0.0
12,0.0
13,0.0
14,3.9408364239536315
15,-2.0285528668770289
16,2.6665131011969267
17,-1.3452636420913678
18,4.134555860742429
2,1, 1, 1, 0,23, 0.00,15.00,Tuesday
7,-1.25
8,0.0
9,0.0
10,0.0
11,0.0
12,0.0
13,0.0
14,3.897268005850934
15,-2.332068354227514
16,2.5781390225636189
17,-1.6186301610404144
18,4.1227757924967769
2,1, 1, 1, 0,23,15.00,30.00,Tuesday
7,-1.4
8,0.0
9,0.0
10,0.0
11,0.0
12,0.0
13,0.0
14,3.857018959953384
15,-2.6365938263547687
16,2.4790080160626077
17,-1.9096780320822973
18,4.100923974418108
2,1, 1, 1, 0,23,30.00,45.00,Tuesday
7,-1.5499999999999999
8,0.0
9,0.0
10,0.0
11,0.0
12,0.0
13,0.0
14,3.8123678181879487
15,-2.941794379332357
16,2.3789425578360126
17,-2.2008238094963419
18,4.069871412697227
2,1, 1, 1, 0,23,45.00,60.00,Tuesday
7,-1.7
8,0.0
9,0.0
10,0.0
11,0.0
12,0.0
13,0.0
14,3.7638929181668487
15,-3.2473366843275497
16,2.275326882780746
17,-2.49248520010849
18,4.032469390252104
2,1, 1, 1, 0,24, 0.00,15.00,Tuesday
7,-1.7
8,0.0
9,0.0
10,0.0
11,0.0
12,0.0
13,0.0
14,3.732961706340342
15,-3.301214630851317
16,2.2313268266894967
17,-2.5534091919554386
18,3.9943191608223627
2,1, 1, 1, 0,24,15.00,30.00,Tuesday
7,-1.7
8,0.0
9,0.0
10,0.0
11,0.0
12,0.0
13,0.0
14,3.6989392310202184
15,-3.3558184275744016
16,2.19146239219981
17,-2.6131351368385369
18,3.958462880465391
2,1, 1, 1, 0,24,30.00,45.00,Tuesday
7,-1.7
8,0.0
9,0.0
10,0.0
11,0.0
12,0.0
13,0.0
14,3.6658415436670319
15,-3.4102766120129628
16,2.1510948153454025
17,-2.67300594185258
18,3.9249771479959576
2,1, 1, 1, 0,24,45.00,60.00,Tuesday
7,-1.7
8,0.0
9,0.0
10,0.0
11,0.0
12,0.0
13,0.0
14,3.633463643381459
15,-3.464737081501431
16,2.111524401525344
17,-2.7326195046802015
18,3.892929082264566
End of Data
 Number of Records Written=        1152
