Program Version,EnergyPlus, Version 9.5.0-de239b2e5f, YMD=2022.11.01 22:08
1,5,Environment Title[],Latitude[deg],Longitude[deg],Time Zone[],Elevation[m]
2,8,Day of Simulation[],Month[],Day of Month[],DST Indicator[1=yes 0=no],Hour[],StartMinute[],EndMinute[],DayType
3,5,Cumulative Day of Simulation[],Month[],Day of Month[],DST Indicator[1=yes 0=no],DayType  ! When Daily Report Variables Requested
4,2,Cumulative Days of Simulation[],Month[]  ! When Monthly Report Variables Requested
5,1,Cumulative Days of Simulation[] ! When Run Period Report Variables Requested
6,1,Calendar Year of Simulation[] ! When Annual Report Variables Requested
7,1,Environment,Site Outdoor Air Drybulb Temperature [C] !TimeStep
8,1,ZONE ONE,Zone Windows Total Transmitted Solar Radiation Rate [W] !TimeStep
9,1,ZN001:WALL001,Surface Outside Face Sunlit Fraction [] !TimeStep
10,1,ZN001:WALL001,Surface Outside Face Incident Solar Radiation Rate per Area [W/m2] !TimeStep
11,1,ZN001:WALL001:WIN001,Surface Outside Face Sunlit Fraction [] !TimeStep
12,1,ZN001:WALL001:WIN001,Surface Outside Face Incident Solar Radiation Rate per Area [W/m2] !TimeStep
13,1,ZN001:WALL001:WIN001,Surface Window Transmitted Solar Radiation Rate [W] !TimeStep
14,1,ZN001:WALL001,Surface Inside Face Temperature [C] !TimeStep
15,1,ZN001:WALL001,Surface Outside Face Temperature [C] !TimeStep
16,1,ZN001:WALL001:WIN001,Surface Inside Face Temperature [C] !TimeStep
17,1,ZN001:WALL001:WIN001,Surface Outside Face Temperature [C] !TimeStep
18,1,ZONE ONE,Zone Mean Air Temperature [C] !TimeStep
End of Data Dictionary
1,RUN PERIOD 1,  41.98, -87.92,  -6.00, 201.00
2,1, 1, 1, 0, 1, 0.00,15.00,Tuesday
7,-4.324999999999999
8,0.0
9,0.0
10,0.0
11,0.0
12,0.0
13,0.0
14,7.587257989596954
15,-5.865804048873085
16,4.978416885454294
17,-4.099871998071535
18,8.088719335594345
2,1, 1, 1, 0, 1,15.00,30.00,Tuesday
7,-6.949999999999999
8,0.0
9,0.0
10,0.0
11,0.0
12,0.0
13,0.0
14,7.402291992521653
15,-8.332932740883987
16,4.376663830569555
17,-6.187352441749056
18,7.985233344567467
2,1, 1, 1, 0, 1,30.00,45.00,Tuesday
7,-9.575
8,0.0
9,0.0
10,0.0
11,0.0
12,0.0
13,0.0
14,7.1971587943050479
15,-10.807997309918019
16,3.7681334329579956
17,-8.28099432004825
18,7.850368542413581
2,1, 1, 1, 0, 1,45.00,60.00,Tuesday
7,-12.2
8,0.0
9,0.0
10,0.0
11,0.0
12,0.0
13,0.0
14,6.976182267549765
15,-13.289697754829226
16,3.1444728447430636
17,-10.38216563962527
18,7.693969623444597
2,1, 1, 1, 0, 2, 0.00,15.00,Tuesday
7,-12.075
8,0.0
9,0.0
10,0.0
11,0.0
12,0.0
13,0.0
14,6.90226790089734
15,-13.090448190151867
16,3.07151030071293
17,-10.221160825625987
18,7.553048430773181
2,1, 1, 1, 0, 2,15.00,30.00,Tuesday
7,-11.95
8,0.0
9,0.0
10,0.0
11,0.0
12,0.0
13,0.0
14,6.815239034351821
15,-12.913490446930736
16,3.03243833950296
17,-10.077690980951389
18,7.444195987830636
2,1, 1, 1, 0, 2,30.00,45.00,Tuesday
7,-11.825
8,0.0
9,0.0
10,0.0
11,0.0
12,0.0
13,0.0
14,6.745449052631185
15,-12.735385346837545
16,2.999250245007488
17,-9.933775585053468
18,7.361616573694309
2,1, 1, 1, 0, 2,45.00,60.00,Tuesday
7,-11.7
8,0.0
9,0.0
10,0.0
11,0.0
12,0.0
13,0.0
14,6.686751412159963
15,-12.557367450683812
16,2.9787626333857135
17,-9.78722756997638
18,7.294140327218878
2,1, 1, 1, 0, 3, 0.00,15.00,Tuesday
7,-11.549999999999999
8,0.0
9,0.0
10,0.0
11,0.0
12,0.0
13,0.0
14,6.62970804637918
15,-12.430330776291905
16,2.9664489117626546
17,-9.637152580456587
18,7.232908905278293
2,1, 1, 1, 0, 3,15.00,30.00,Tuesday
7,-11.399999999999999
8,0.0
9,0.0
10,0.0
11,0.0
12,0.0
13,0.0
14,6.575724452343168
15,-12.304621391231058
16,2.9559294596247698
17,-9.486840325749427
18,7.173681332319641
2,1, 1, 1, 0, 3,30.00,45.00,Tuesday
7,-11.25
8,0.0
9,0.0
10,0.0
11,0.0
12,0.0
13,0.0
14,6.5225379331117099
15,-12.180384771686187
16,2.947106721989826
17,-9.336257296306372
18,7.11531446877643
2,1, 1, 1, 0, 3,45.00,60.00,Tuesday
7,-11.1
8,0.0
9,0.0
10,0.0
11,0.0
12,0.0
13,0.0
14,6.469892483770489
15,-12.05767571037864
16,2.9426942091962475
17,-9.194844836984203
18,7.057791078060167
2,1, 1, 1, 0, 4, 0.00,15.00,Tuesday
7,-11.1
8,0.0
9,0.0
10,0.0
11,0.0
12,0.0
13,0.0
14,6.4133882952278749
15,-12.030650632640527
16,2.8806252165456955
17,-9.228896492918353
18,7.000118481929794
2,1, 1, 1, 0, 4,15.00,30.00,Tuesday
7,-11.1
8,0.0
9,0.0
10,0.0
11,0.0
12,0.0
13,0.0
14,6.357315806131803
15,-12.00466668953589
16,2.824586849827085
17,-9.269445395031824
18,6.941925232327833
2,1, 1, 1, 0, 4,30.00,45.00,Tuesday
7,-11.1
8,0.0
9,0.0
10,0.0
11,0.0
12,0.0
13,0.0
14,6.301031823130999
15,-11.98015048442697
16,2.7693209916723164
17,-9.30954571825464
18,6.883373410877082
2,1, 1, 1, 0, 4,45.00,60.00,Tuesday
7,-11.1
8,0.0
9,0.0
10,0.0
11,0.0
12,0.0
13,0.0
14,6.244667770582391
15,-11.9569726943226
16,2.714284598968561
17,-9.348577817012427
18,6.824722885466128
2,1, 1, 1, 0, 5, 0.00,15.00,Tuesday
7,-10.975
8,0.0
9,0.0
10,0.0
11,0.0
12,0.0
13,0.0
14,6.193910159397225
15,-11.835149751569532
16,2.6967771546645737
17,-9.263375878615989
18,6.76723201818564
2,1, 1, 1, 0, 5,15.00,30.00,Tuesday
7,-10.85
8,0.0
9,0.0
10,0.0
11,0.0
12,0.0
13,0.0
14,6.143390376117334
15,-11.713387101770996
16,2.677003978637117
17,-9.170046893351924
18,6.711389065059152
2,1, 1, 1, 0, 5,30.00,45.00,Tuesday
7,-10.725
8,0.0
9,0.0
10,0.0
11,0.0
12,0.0
13,0.0
14,6.09393274136771
15,-11.591601061129373
16,2.6575356065005169
17,-9.075864153281259
18,6.656947143061064
2,1, 1, 1, 0, 5,45.00,60.00,Tuesday
7,-10.6
8,0.0
9,0.0
10,0.0
11,0.0
12,0.0
13,0.0
14,6.04535310384914
15,-11.469824339899775
16,2.638896475033164
17,-8.981440832845749
18,6.60351441630606
2,1, 1, 1, 0, 6, 0.00,15.00,Tuesday
7,-10.6
8,0.0
9,0.0
10,0.0
11,0.0
12,0.0
13,0.0
14,5.9899376370116539
15,-11.470894144723909
16,2.5916426725565318
17,-8.983710276214766
18,6.549475762200523
2,1, 1, 1, 0, 6,15.00,30.00,Tuesday
7,-10.6
8,0.0
9,0.0
10,0.0
11,0.0
12,0.0
13,0.0
14,5.935164543115122
15,-11.471920956472902
16,2.545490587303675
17,-8.992495273004693
18,6.4941329585068729
2,1, 1, 1, 0, 6,30.00,45.00,Tuesday
7,-10.6
8,0.0
9,0.0
10,0.0
11,0.0
12,0.0
13,0.0
14,5.879863853300785
15,-11.472989520293995
16,2.4995289758494438
17,-9.001844900439437
18,6.43778375156972
2,1, 1, 1, 0, 6,45.00,60.00,Tuesday
7,-10.6
8,0.0
9,0.0
10,0.0
11,0.0
12,0.0
13,0.0
14,5.824271674463899
15,-11.474055405840178
16,2.4532181341157868
17,-9.01133622612798
18,6.3809506471673169
2,1, 1, 1, 0, 7, 0.00,15.00,Tuesday
7,-10.6
8,0.0
9,0.0
10,0.0
11,0.0
12,0.0
13,0.0
14,5.770587717799012
15,-11.451691134680699
16,2.3994323457695829
17,-9.044815158269217
18,6.32427939490627
2,1, 1, 1, 0, 7,15.00,30.00,Tuesday
7,-10.6
8,0.0
9,0.0
10,0.0
11,0.0
12,0.0
13,0.0
14,5.716810675667383
15,-11.43048675466728
16,2.347658892409413
17,-9.07858642706168
18,6.268103513823125
2,1, 1, 1, 0, 7,30.00,45.00,Tuesday
7,-10.6
8,0.0
9,0.0
10,0.0
11,0.0
12,0.0
13,0.0
14,5.663338603741325
15,-11.41036346658573
16,2.296373640502452
17,-9.111491807977814
18,6.212405436443172
2,1, 1, 1, 0, 7,45.00,60.00,Tuesday
7,-10.6
8,0.0
9,0.0
10,0.0
11,0.0
12,0.0
13,0.0
14,5.610175923618141
15,-11.391256935794513
16,2.245617246920233
17,-9.143377657194606
18,6.157076273288754
2,1, 1, 1, 0, 8, 0.00,15.00,Tuesday
7,-10.45
8,0.0
9,0.0
10,0.0
11,0.0
12,0.0
13,0.0
14,5.5565707482566559
15,-11.341466848944906
16,2.221364745040944
17,-9.089349428374021
18,6.101835201346848
2,1, 1, 1, 0, 8,15.00,30.00,Tuesday
7,-10.3
8,188.30072792873029
9,1.0
10,22.819555959623899
11,1.0
12,22.819555959623899
13,188.30072792873029
14,5.628755662194072
15,-9.667558066803132
16,2.5006913416575005
17,-8.76950429392798
18,6.06623148560154
2,1, 1, 1, 0, 8,30.00,45.00,Tuesday
7,-10.15
8,924.5584615418986
9,1.0
10,109.75755355442667
11,1.0
12,109.75755355442667
13,924.5584615418986
14,6.044609392123917
15,-3.2930241237424258
16,3.70275571421314
17,-7.700486566772952
18,6.104968078364146
2,1, 1, 1, 0, 8,45.00,60.00,Tuesday
7,-10.0
8,1681.210308021426
9,1.0
10,195.8764694434918
11,1.0
12,195.8764694434918
13,1681.210308021426
14,6.570094523106597
15,3.1824198825114498
16,5.0317656881643419
17,-6.637112753194174
18,6.225847099594965
2,1, 1, 1, 0, 9, 0.00,15.00,Tuesday
7,-9.725
8,2435.2559543377349
9,1.0
10,278.97248314719988
11,1.0
12,278.97248314719988
13,2435.2559543377349
14,7.028774481674585
15,8.362609060587515
16,6.418449781155118
17,-5.675258924135051
18,6.40400560660782
2,1, 1, 1, 0, 9,15.00,30.00,Tuesday
7,-9.45
8,3230.1064742462806
9,1.0
10,364.91995730569456
11,1.0
12,364.91995730569456
13,3230.1064742462806
14,7.494723470866361
15,13.437621154308742
16,7.81716636491808
17,-4.711308449136084
18,6.629213946136944
2,1, 1, 1, 0, 9,30.00,45.00,Tuesday
7,-9.175
8,3755.976558067628
9,1.0
10,420.35879993239237
11,1.0
12,420.35879993239237
13,3755.976558067628
14,7.830179730118043
15,16.194513323176197
16,8.75204587867222
17,-4.11551357238227
18,6.880589534382354
2,1, 1, 1, 0, 9,45.00,60.00,Tuesday
7,-8.9
8,4301.872675472636
9,1.0
10,478.00138373643099
11,1.0
12,478.00138373643099
13,4301.872675472636
14,8.222138278225753
15,19.188758160026017
16,9.677349401240122
17,-3.50087027250612
18,7.147346806497113
2,1, 1, 1, 0,10, 0.00,15.00,Tuesday
7,-8.350000000000002
8,4859.302038078584
9,1.0
10,536.9185644770597
11,1.0
12,536.9185644770597
13,4859.302038078584
14,8.563417806667769
15,20.303384710086808
16,10.635542001639124
17,-2.839852799713867
18,7.429644375771219
2,1, 1, 1, 0,10,15.00,30.00,Tuesday
7,-7.800000000000001
8,5435.9889109556729
9,1.0
10,598.0969199229219
11,1.0
12,598.0969199229219
13,5435.9889109556729
14,8.935701866544145
15,21.554189981325317
16,11.610477242710602
17,-2.1777388678397076
18,7.561453647733176
2,1, 1, 1, 0,10,30.00,45.00,Tuesday
7,-7.25
8,5814.3021928020739
9,1.0
10,637.6133352894237
11,1.0
12,637.6133352894237
13,5814.3021928020739
14,9.187363517896527
15,21.61063507225132
16,12.306168526640363
17,-1.7079734530548195
18,7.816835803526287
2,1, 1, 1, 0,10,45.00,60.00,Tuesday
7,-6.7
8,6187.043120947239
9,1.0
10,676.6412284283772
11,1.0
12,676.6412284283772
13,6187.043120947239
14,9.431807310112566
15,21.768047716450707
16,12.943583659243246
17,-1.2438802440158839
18,8.005165141750933
2,1, 1, 1, 0,11, 0.00,15.00,Tuesday
7,-6.275
8,6553.0029412576709
9,1.0
10,715.0112779846514
11,1.0
12,715.0112779846514
13,6553.0029412576709
14,9.825217601217913
15,23.86745891140592
16,13.648484513976428
17,-0.5591703513765651
18,8.446306946828785
2,1, 1, 1, 0,11,15.00,30.00,Tuesday
7,-5.85
8,6910.348521561578
9,1.0
10,752.5077794605232
11,1.0
12,752.5077794605232
13,6910.348521561578
14,10.269920480004166
15,25.80460523516462
16,14.404955046521934
17,0.11478262288022734
18,8.862000197225833
2,1, 1, 1, 0,11,30.00,45.00,Tuesday
7,-5.425
8,6804.145982274085
9,1.0
10,742.5988714321785
11,1.0
12,742.5988714321785
13,6804.145982274085
14,10.54069884080541
15,25.656506430186736
16,14.640052819028654
17,0.4248372452638023
18,9.24104755059933
2,1, 1, 1, 0,11,45.00,60.00,Tuesday
7,-5.0
8,6652.394939440158
9,1.0
10,727.8169025450712
11,1.0
12,727.8169025450712
13,6652.394939440158
14,10.795618027485445
15,25.428116117933226
16,14.775872034031864
17,0.7038971967810994
18,9.573692572274233
2,1, 1, 1, 0,12, 0.00,15.00,Tuesday
7,-4.575
8,6391.429124858089
9,1.0
10,700.3759009170325
11,1.0
12,700.3759009170325
13,6391.429124858089
14,10.977202857837279
15,24.6860845816754
16,14.762007521255442
17,0.931017669533901
18,9.858901589937729
2,1, 1, 1, 0,12,15.00,30.00,Tuesday
7,-4.15
8,6197.889213580417
9,1.0
10,681.6705029034473
11,1.0
12,681.6705029034473
13,6197.889213580417
14,11.146578407378167
15,24.35541264555185
16,14.798980854405045
17,1.2186853363303954
18,10.108174997931397
2,1, 1, 1, 0,12,30.00,45.00,Tuesday
7,-3.7249999999999998
8,5441.230537823343
9,1.0
10,602.01865277251
11,1.0
12,602.01865277251
13,5441.230537823343
14,11.090770801144373
15,21.328166959943258
16,14.158055106261373
17,1.066014804773431
18,10.29729321297991
2,1, 1, 1, 0,12,45.00,60.00,Tuesday
7,-3.3
8,4443.921330168949
9,1.0
10,493.55004396206007
11,1.0
12,493.55004396206007
13,4443.921330168949
14,10.895906641421372
15,17.15018771714291
16,13.077656574881133
17,0.6767098389788089
18,10.398011329141806
2,1, 1, 1, 0,13, 0.00,15.00,Tuesday
7,-3.0249999999999996
8,3669.3290090929488
9,1.0
10,412.335026418112
11,1.0
12,412.335026418112
13,3669.3290090929488
14,10.762348512409249
15,14.306908973886245
16,12.204357625480953
17,0.4212051893147759
18,10.427852494498417
2,1, 1, 1, 0,13,15.00,30.00,Tuesday
7,-2.75
8,2687.44564505796
9,1.0
10,305.94037763660148
11,1.0
12,305.94037763660148
13,2687.44564505796
14,10.440662670929827
15,10.134357150510365
16,10.970065409196537
17,-0.04819371548910567
18,10.397348973836492
2,1, 1, 1, 0,13,30.00,45.00,Tuesday
7,-2.475
8,2453.5427419562186
9,1.0
10,281.0763483922329
11,1.0
12,281.0763483922329
13,2453.5427419562186
14,10.412176429887577
15,9.62272106467956
16,10.661950330785942
17,0.08647597505762406
18,10.348373593276165
2,1, 1, 1, 0,13,45.00,60.00,Tuesday
7,-2.2
8,2224.5123596061168
9,1.0
10,256.7721209415886
11,1.0
12,256.7721209415886
13,2224.5123596061168
14,10.37544544407877
15,9.016494996226437
16,10.436330010149505
17,0.24615780532928967
18,10.306812732057072
2,1, 1, 1, 0,14, 0.00,15.00,Tuesday
7,-1.9250000000000003
8,1817.2003545433755
9,1.0
10,210.73276284570657
11,1.0
12,210.73276284570657
13,1817.2003545433755
14,10.22116782700033
15,7.469763915876914
16,9.893000155954951
17,0.18963214999462253
18,10.269426833678587
2,1, 1, 1, 0,14,15.00,30.00,Tuesday
7,-1.6500000000000002
8,1614.2604980242107
9,1.0
10,189.38488290342594
11,1.0
12,189.38488290342594
13,1614.2604980242107
14,10.183320722236397
15,7.066997906503742
16,9.650957835744976
17,0.3373282721333908
18,10.235666572851306
2,1, 1, 1, 0,14,30.00,45.00,Tuesday
7,-1.375
8,1539.5476742548613
9,1.0
10,179.3940297802914
11,1.0
12,179.3940297802914
13,1539.5476742548613
14,10.170986324074793
15,7.191063800297547
16,9.602422427467218
17,0.5800134530956598
18,10.206782536244879
2,1, 1, 1, 0,14,45.00,60.00,Tuesday
7,-1.1
8,1463.9812974435914
9,1.0
10,169.43349014176136
11,1.0
12,169.43349014176136
13,1463.9812974435914
14,10.154827728444932
15,7.291359969250573
16,9.546883232893265
17,0.8209782152698608
18,10.182161825774165
2,1, 1, 1, 0,15, 0.00,15.00,Tuesday
7,-1.1
8,1540.9321607438756
9,1.0
10,178.15692317953907
11,1.0
12,178.15692317953907
13,1540.9321607438756
14,10.218976742439106
15,8.110569575265899
16,9.669291200363887
17,0.9535547375389797
18,10.165823523006257
2,1, 1, 1, 0,15,15.00,30.00,Tuesday
7,-1.1
8,1447.6634452635654
9,1.0
10,166.40516310952945
11,1.0
12,166.40516310952945
13,1447.6634452635654
14,10.164945308878887
15,7.748497776665805
16,9.539425141658285
17,0.9090197943097564
18,10.152233881699687
2,1, 1, 1, 0,15,30.00,45.00,Tuesday
7,-1.1
8,1220.643805884034
9,1.0
10,140.8967369711617
11,1.0
12,140.8967369711617
13,1220.643805884034
14,10.032502717717668
15,6.5397555739649919
16,9.180403283596207
17,0.7121658737459029
18,10.130946530097836
2,1, 1, 1, 0,15,45.00,60.00,Tuesday
7,-1.1
8,1004.4903719220124
9,1.0
10,116.57355796743004
11,1.0
12,116.57355796743004
13,1004.4903719220124
14,9.92238590832933
15,5.338475127965635
16,8.821082609872292
17,0.5066443345334051
18,10.088697600834685
2,1, 1, 1, 0,16, 0.00,15.00,Tuesday
7,-1.1
8,797.2208701523066
9,1.0
10,93.14939272689483
11,1.0
12,93.14939272689483
13,797.2208701523066
14,9.809093450494503
15,4.289346794827354
16,8.502625902185742
17,0.38589393451388789
18,10.023717061158298
2,1, 1, 1, 0,16,15.00,30.00,Tuesday
7,-1.1
8,494.91616074042886
9,1.0
10,57.94047897402063
11,1.0
12,57.94047897402063
13,494.91616074042886
14,9.602345072790225
15,2.1688082399317798
16,8.010714541910773
17,0.12605291314667967
18,9.93250646801852
2,1, 1, 1, 0,16,30.00,45.00,Tuesday
7,-1.1
8,383.7216918057501
9,1.0
10,45.38251793443488
11,1.0
12,45.38251793443488
13,383.7216918057501
14,9.51814757070904
15,1.562382373696469
16,7.790307845006055
17,0.09606198889144935
18,9.831007456600777
2,1, 1, 1, 0,16,45.00,60.00,Tuesday
7,-1.1
8,267.8631625632144
9,1.0
10,32.02625108222755
11,1.0
12,32.02625108222755
13,267.8631625632144
14,9.394844703018276
15,0.7040234120659598
16,7.586814320047381
17,0.06464272618228506
18,9.732087258068124
2,1, 1, 1, 0,17, 0.00,15.00,Tuesday
7,-1.1
8,146.92256949667243
9,1.0
10,17.762198626050539
11,1.0
12,17.762198626050539
13,146.92256949667243
14,9.247734477532758
15,-0.5405282301882393
16,7.331822317707065
17,-0.07632420775075843
18,9.633968096347138
2,1, 1, 1, 0,17,15.00,30.00,Tuesday
7,-1.1
8,0.0
9,0.0
10,0.0
11,0.0
12,0.0
13,0.0
14,9.050578192254689
15,-2.374623281891509
16,6.998754892062379
17,-0.33993311416600138
18,9.523424204753973
2,1, 1, 1, 0,17,30.00,45.00,Tuesday
7,-1.1
8,0.0
9,0.0
10,0.0
11,0.0
12,0.0
13,0.0
14,8.98880684334885
15,-2.507379455696683
16,6.911790512259643
17,-0.31081635765269768
18,9.415622705187639
2,1, 1, 1, 0,17,45.00,60.00,Tuesday
7,-1.1
8,0.0
9,0.0
10,0.0
11,0.0
12,0.0
13,0.0
14,8.910948905903958
15,-2.692844528240461
16,6.866303180558816
17,-0.266857548872224
18,9.324694671383512
2,1, 1, 1, 0,18, 0.00,15.00,Tuesday
7,-1.25
8,0.0
9,0.0
10,0.0
11,0.0
12,0.0
13,0.0
14,8.844588918179728
15,-2.8414064562400509
16,6.771388109739746
17,-0.4096709147987667
18,9.251062278139
2,1, 1, 1, 0,18,15.00,30.00,Tuesday
7,-1.4
8,0.0
9,0.0
10,0.0
11,0.0
12,0.0
13,0.0
14,8.783841368118737
15,-2.993872519011956
16,6.69306590239438
17,-0.5376440664792881
18,9.189077238233045
2,1, 1, 1, 0,18,30.00,45.00,Tuesday
7,-1.5499999999999999
8,0.0
9,0.0
10,0.0
11,0.0
12,0.0
13,0.0
14,8.727273678059959
15,-3.145961919638951
16,6.616955116657039
17,-0.6696772225362793
18,9.13321596755729
2,1, 1, 1, 0,18,45.00,60.00,Tuesday
7,-1.7
8,0.0
9,0.0
10,0.0
11,0.0
12,0.0
13,0.0
14,8.672646427459928
15,-3.298219697982516
16,6.543780673374613
17,-0.8009559580995074
18,9.080134662216882
2,1, 1, 1, 0,19, 0.00,15.00,Tuesday
7,-1.825
8,0.0
9,0.0
10,0.0
11,0.0
12,0.0
13,0.0
14,8.641781163404751
15,-3.1594604042443277
16,6.454066612873646
17,-0.9876243945878969
18,9.031669597460372
2,1, 1, 1, 0,19,15.00,30.00,Tuesday
7,-1.9500000000000002
8,0.0
9,0.0
10,0.0
11,0.0
12,0.0
13,0.0
14,8.609634195425587
15,-3.1009884041964335
16,6.380570549023446
17,-1.158651644123097
18,8.9896005244506
2,1, 1, 1, 0,19,30.00,45.00,Tuesday
7,-2.075
8,0.0
9,0.0
10,0.0
11,0.0
12,0.0
13,0.0
14,8.57341028093076
15,-3.1770589618398987
16,6.325007079688248
17,-1.2821135052950013
18,8.952593773278354
2,1, 1, 1, 0,19,45.00,60.00,Tuesday
7,-2.2
8,0.0
9,0.0
10,0.0
11,0.0
12,0.0
13,0.0
14,8.539861446570525
15,-3.162109525884333
16,6.255989753372887
17,-1.4442682446228333
18,8.917594948333904
2,1, 1, 1, 0,20, 0.00,15.00,Tuesday
7,-1.9250000000000003
8,0.0
9,0.0
10,0.0
11,0.0
12,0.0
13,0.0
14,8.522022305598059
15,-2.8627407845132919
16,6.2896213603659139
17,-1.244387717160123
18,8.885257264194762
2,1, 1, 1, 0,20,15.00,30.00,Tuesday
7,-1.6500000000000002
8,0.0
9,0.0
10,0.0
11,0.0
12,0.0
13,0.0
14,8.50460326876286
15,-2.566189844998233
16,6.321010969920167
17,-1.0329419019808484
18,8.856194977085865
2,1, 1, 1, 0,20,30.00,45.00,Tuesday
7,-1.375
8,0.0
9,0.0
10,0.0
11,0.0
12,0.0
13,0.0
14,8.489017714974029
15,-2.270840051073786
16,6.354039551745075
17,-0.8190717168054107
18,8.83001912601496
2,1, 1, 1, 0,20,45.00,60.00,Tuesday
7,-1.1
8,0.0
9,0.0
10,0.0
11,0.0
12,0.0
13,0.0
14,8.47503469267671
15,-1.9766791369570947
16,6.389155857530795
17,-0.6029211772400913
18,8.806005204329447
2,1, 1, 1, 0,21, 0.00,15.00,Tuesday
7,-1.25
8,0.0
9,0.0
10,0.0
11,0.0
12,0.0
13,0.0
14,8.42183537833793
15,-2.2503752770562586
16,6.350636550849174
17,-0.662111470994148
18,8.777439522810568
2,1, 1, 1, 0,21,15.00,30.00,Tuesday
7,-1.4
8,0.0
9,0.0
10,0.0
11,0.0
12,0.0
13,0.0
14,8.369392095674759
15,-2.4629790071595489
16,6.295108368254432
17,-0.7504854553278619
18,8.739733420302928
2,1, 1, 1, 0,21,30.00,45.00,Tuesday
7,-1.5499999999999999
8,0.0
9,0.0
10,0.0
11,0.0
12,0.0
13,0.0
14,8.304119616131585
15,-2.7973969619874747
16,6.249322305917985
17,-0.7974588620106715
18,8.692244008496555
2,1, 1, 1, 0,21,45.00,60.00,Tuesday
7,-1.7
8,0.0
9,0.0
10,0.0
11,0.0
12,0.0
13,0.0
14,8.233586933799247
15,-3.2378709068872095
16,6.204339309725697
17,-0.8128085052793495
18,8.63733722775525
2,1, 1, 1, 0,22, 0.00,15.00,Tuesday
7,-1.5499999999999999
8,0.0
9,0.0
10,0.0
11,0.0
12,0.0
13,0.0
14,8.2286492104799
15,-2.763766675718842
16,6.159324795659927
17,-0.8123963683468674
18,8.588265801031695
2,1, 1, 1, 0,22,15.00,30.00,Tuesday
7,-1.4
8,0.0
9,0.0
10,0.0
11,0.0
12,0.0
13,0.0
14,8.212393458057516
15,-2.4427587578598004
16,6.154509777798239
17,-0.7799623695964328
18,8.551927380039656
2,1, 1, 1, 0,22,30.00,45.00,Tuesday
7,-1.25
8,0.0
9,0.0
10,0.0
11,0.0
12,0.0
13,0.0
14,8.196628054591703
15,-2.2266929042917216
16,6.15465523244211
17,-0.6897286716539952
18,8.525866208679443
2,1, 1, 1, 0,22,45.00,60.00,Tuesday
7,-1.1
8,0.0
9,0.0
10,0.0
11,0.0
12,0.0
13,0.0
14,8.184666690232682
15,-1.9514851130096123
16,6.1538258142580279
17,-0.6234511414508575
18,8.50483013773465
2,1, 1, 1, 0,23, 0.00,15.00,Tuesday
7,-1.25
8,0.0
9,0.0
10,0.0
11,0.0
12,0.0
13,0.0
14,8.130666404530122
15,-2.2547388740516149
16,6.059965699877978
17,-0.9011272701421262
18,8.478436273500196
2,1, 1, 1, 0,23,15.00,30.00,Tuesday
7,-1.4
8,0.0
9,0.0
10,0.0
11,0.0
12,0.0
13,0.0
14,8.078835809753589
15,-2.559433005201628
16,5.954281717798153
17,-1.1925609271787608
18,8.44181141751744
2,1, 1, 1, 0,23,30.00,45.00,Tuesday
7,-1.5499999999999999
8,0.0
9,0.0
10,0.0
11,0.0
12,0.0
13,0.0
14,8.02218808940766
15,-2.864772410719581
16,5.84658177050477
17,-1.4855383291766203
18,8.396324424130173
2,1, 1, 1, 0,23,45.00,60.00,Tuesday
7,-1.7
8,0.0
9,0.0
10,0.0
11,0.0
12,0.0
13,0.0
14,7.96164025853192
15,-3.1704563243453598
16,5.734704649717514
17,-1.7805274229128827
18,8.345050951601854
2,1, 1, 1, 0,24, 0.00,15.00,Tuesday
7,-1.7
8,0.0
9,0.0
10,0.0
11,0.0
12,0.0
13,0.0
14,7.916737889199852
15,-3.224688502611152
16,5.678863247299319
17,-1.8486290271799249
18,8.293586364888237
2,1, 1, 1, 0,24,15.00,30.00,Tuesday
7,-1.7
8,0.0
9,0.0
10,0.0
11,0.0
12,0.0
13,0.0
14,7.869823990401706
15,-3.279473747138326
16,5.627930931859851
17,-1.9120383862583595
18,8.244818775000989
2,1, 1, 1, 0,24,30.00,45.00,Tuesday
7,-1.7
8,0.0
9,0.0
10,0.0
11,0.0
12,0.0
13,0.0
14,7.824081446339709
15,-3.3341513620408089
16,5.576866691352279
17,-1.9751689598471672
18,8.198618691858057
2,1, 1, 1, 0,24,45.00,60.00,Tuesday
7,-1.7
8,0.0
9,0.0
10,0.0
11,0.0
12,0.0
13,0.0
14,7.779193214299314
15,-3.388832837087183
16,5.526774316800129
17,-2.0379228026241664
18,8.153900635211654
End of Data
 Number of Records Written=        1152
