Program Version,EnergyPlus, Version 9.5.0-de239b2e5f, YMD=2022.11.01 22:08
1,5,Environment Title[],Latitude[deg],Longitude[deg],Time Zone[],Elevation[m]
2,8,Day of Simulation[],Month[],Day of Month[],DST Indicator[1=yes 0=no],Hour[],StartMinute[],EndMinute[],DayType
3,5,Cumulative Day of Simulation[],Month[],Day of Month[],DST Indicator[1=yes 0=no],DayType  ! When Daily Report Variables Requested
4,2,Cumulative Days of Simulation[],Month[]  ! When Monthly Report Variables Requested
5,1,Cumulative Days of Simulation[] ! When Run Period Report Variables Requested
6,1,Calendar Year of Simulation[] ! When Annual Report Variables Requested
7,1,Environment,Site Outdoor Air Drybulb Temperature [C] !TimeStep
8,1,ZONE ONE,Zone Windows Total Transmitted Solar Radiation Rate [W] !TimeStep
9,1,ZN001:WALL001,Surface Outside Face Sunlit Fraction [] !TimeStep
10,1,ZN001:WALL001,Surface Outside Face Incident Solar Radiation Rate per Area [W/m2] !TimeStep
11,1,ZN001:WALL001:WIN001,Surface Outside Face Sunlit Fraction [] !TimeStep
12,1,ZN001:WALL001:WIN001,Surface Outside Face Incident Solar Radiation Rate per Area [W/m2] !TimeStep
13,1,ZN001:WALL001:WIN001,Surface Window Transmitted Solar Radiation Rate [W] !TimeStep
14,1,ZN001:WALL001,Surface Inside Face Temperature [C] !TimeStep
15,1,ZN001:WALL001,Surface Outside Face Temperature [C] !TimeStep
16,1,ZN001:WALL001:WIN001,Surface Inside Face Temperature [C] !TimeStep
17,1,ZN001:WALL001:WIN001,Surface Outside Face Temperature [C] !TimeStep
18,1,ZONE ONE,Zone Mean Air Temperature [C] !TimeStep
End of Data Dictionary
1,RUN PERIOD 1,  41.98, -87.92,  -6.00, 201.00
2,1, 1, 1, 0, 1, 0.00,15.00,Tuesday
7,-4.324999999999999
8,0.0
9,0.0
10,0.0
11,0.0
12,0.0
13,0.0
14,8.340297941957142
15,-5.852118478152072
16,5.60574355615438
17,-3.972979415712416
18,8.859905525032929
2,1, 1, 1, 0, 1,15.00,30.00,Tuesday
7,-6.949999999999999
8,0.0
9,0.0
10,0.0
11,0.0
12,0.0
13,0.0
14,8.153992183545796
15,-8.319106866858862
16,5.0053628494270019
17,-6.0603808082386199
18,8.754005768955875
2,1, 1, 1, 0, 1,30.00,45.00,Tuesday
7,-9.575
8,0.0
9,0.0
10,0.0
11,0.0
12,0.0
13,0.0
14,7.947445851442089
15,-10.794019118191607
16,4.397876703705265
17,-8.15386538963969
18,8.616915589256453
2,1, 1, 1, 0, 1,45.00,60.00,Tuesday
7,-12.2
8,0.0
9,0.0
10,0.0
11,0.0
12,0.0
13,0.0
14,7.725070897808182
15,-13.275574438171966
16,3.7751155705332168
17,-10.254817207695169
18,8.458530540833034
2,1, 1, 1, 0, 2, 0.00,15.00,Tuesday
7,-12.075
8,0.0
9,0.0
10,0.0
11,0.0
12,0.0
13,0.0
14,7.6487968979501999
15,-13.07621908994822
16,3.700498388201538
17,-10.092414581487163
18,8.315839013773026
2,1, 1, 1, 0, 2,15.00,30.00,Tuesday
7,-11.95
8,0.0
9,0.0
10,0.0
11,0.0
12,0.0
13,0.0
14,7.559599647180056
15,-12.89930872326139
16,3.659217873430407
17,-9.949509638987707
18,8.205267348059757
2,1, 1, 1, 0, 2,30.00,45.00,Tuesday
7,-11.825
8,0.0
9,0.0
10,0.0
11,0.0
12,0.0
13,0.0
14,7.487660137843117
15,-12.721256931962103
16,3.6239213619256818
17,-9.80613905686289
18,8.120855584377323
2,1, 1, 1, 0, 2,45.00,60.00,Tuesday
7,-11.7
8,0.0
9,0.0
10,0.0
11,0.0
12,0.0
13,0.0
14,7.426769061624091
15,-12.543295667165945
16,3.6013255910825139
17,-9.660141782511915
18,8.051373789021032
2,1, 1, 1, 0, 3, 0.00,15.00,Tuesday
7,-11.549999999999999
8,0.0
9,0.0
10,0.0
11,0.0
12,0.0
13,0.0
14,7.367528324635976
15,-12.415922074351478
16,3.587383035032417
17,-9.508598246250358
18,7.987997377795971
2,1, 1, 1, 0, 3,15.00,30.00,Tuesday
7,-11.399999999999999
8,0.0
9,0.0
10,0.0
11,0.0
12,0.0
13,0.0
14,7.311296018660891
15,-12.28986059572349
16,3.57518322762121
17,-9.35678449853998
18,7.92654472183658
2,1, 1, 1, 0, 3,30.00,45.00,Tuesday
7,-11.25
8,0.0
9,0.0
10,0.0
11,0.0
12,0.0
13,0.0
14,7.255837412586493
15,-12.16525373326196
16,3.5646560873650516
17,-9.20467589780128
18,7.865918137492856
2,1, 1, 1, 0, 3,45.00,60.00,Tuesday
7,-11.1
8,0.0
9,0.0
10,0.0
11,0.0
12,0.0
13,0.0
14,7.200859720720233
15,-12.042155475100527
16,3.5547507008585628
17,-9.052530577186019
18,7.8060589671199429
2,1, 1, 1, 0, 4, 0.00,15.00,Tuesday
7,-11.1
8,0.0
9,0.0
10,0.0
11,0.0
12,0.0
13,0.0
14,7.142066492663026
15,-12.015623366227743
16,3.4933985953944104
17,-9.097497175607714
18,7.746062047005557
2,1, 1, 1, 0, 4,15.00,30.00,Tuesday
7,-11.1
8,0.0
9,0.0
10,0.0
11,0.0
12,0.0
13,0.0
14,7.083677560767426
15,-11.990108436249873
16,3.4353593697448447
17,-9.141045434893102
18,7.685562017983635
2,1, 1, 1, 0, 4,30.00,45.00,Tuesday
7,-11.1
8,0.0
9,0.0
10,0.0
11,0.0
12,0.0
13,0.0
14,7.025089007761889
15,-11.96603813515255
16,3.377699449626334
17,-9.1834898898
18,7.62470211048245
2,1, 1, 1, 0, 4,45.00,60.00,Tuesday
7,-11.1
8,0.0
9,0.0
10,0.0
11,0.0
12,0.0
13,0.0
14,6.966424001956452
15,-11.943284263630014
16,3.3202490395212864
17,-9.224761623275015
18,7.56373504730006
2,1, 1, 1, 0, 5, 0.00,15.00,Tuesday
7,-10.975
8,0.0
9,0.0
10,0.0
11,0.0
12,0.0
13,0.0
14,6.913354887373064
15,-11.821515901852557
16,3.300675693141784
17,-9.140011539976854
18,7.503935221203999
2,1, 1, 1, 0, 5,15.00,30.00,Tuesday
7,-10.85
8,0.0
9,0.0
10,0.0
11,0.0
12,0.0
13,0.0
14,6.860528347831577
15,-11.699803776501418
16,3.2787767263793627
17,-9.047093270330834
18,7.445795609685979
2,1, 1, 1, 0, 5,30.00,45.00,Tuesday
7,-10.725
8,0.0
9,0.0
10,0.0
11,0.0
12,0.0
13,0.0
14,6.808775820380995
15,-11.578067901984252
16,3.2571883513080595
17,-8.953319068179212
18,7.389065291872723
2,1, 1, 1, 0, 5,45.00,60.00,Tuesday
7,-10.6
8,0.0
9,0.0
10,0.0
11,0.0
12,0.0
13,0.0
14,6.757909689799219
15,-11.456341243155896
16,3.2364392715896885
17,-8.85930265016276
18,7.333348679400018
2,1, 1, 1, 0, 6, 0.00,15.00,Tuesday
7,-10.6
8,0.0
9,0.0
10,0.0
11,0.0
12,0.0
13,0.0
14,6.7002680887381909
15,-11.45744846500667
16,3.187217755162351
17,-8.86201086977485
18,7.277026219599904
2,1, 1, 1, 0, 6,15.00,30.00,Tuesday
7,-10.6
8,0.0
9,0.0
10,0.0
11,0.0
12,0.0
13,0.0
14,6.643272347694922
15,-11.45851736277765
16,3.1391212036288609
17,-8.871176628578099
18,7.2194047236521119
2,1, 1, 1, 0, 6,30.00,45.00,Tuesday
7,-10.6
8,0.0
9,0.0
10,0.0
11,0.0
12,0.0
13,0.0
14,6.58575292297831
15,-11.459627848969412
16,3.0912175032789266
17,-8.880898224256896
18,7.160789054904572
2,1, 1, 1, 0, 6,45.00,60.00,Tuesday
7,-10.6
8,0.0
9,0.0
10,0.0
11,0.0
12,0.0
13,0.0
14,6.52795056718865
15,-11.46073537586047
16,3.042969998251408
17,-8.890759126874287
18,7.101704678426507
2,1, 1, 1, 0, 7, 0.00,15.00,Tuesday
7,-10.6
8,0.0
9,0.0
10,0.0
11,0.0
12,0.0
13,0.0
14,6.472025564988008
15,-11.43876265553575
16,2.986782843908486
17,-8.926285736669854
18,7.042787460665386
2,1, 1, 1, 0, 7,15.00,30.00,Tuesday
7,-10.6
8,0.0
9,0.0
10,0.0
11,0.0
12,0.0
13,0.0
14,6.416018123574656
15,-11.417929697544628
16,2.9326717611986625
17,-8.962150340927963
18,6.984365510012054
2,1, 1, 1, 0, 7,30.00,45.00,Tuesday
7,-10.6
8,0.0
9,0.0
10,0.0
11,0.0
12,0.0
13,0.0
14,6.360320586440341
15,-11.398159843780686
16,2.8790695725386969
17,-8.99710782460545
18,6.926421201624155
2,1, 1, 1, 0, 7,45.00,60.00,Tuesday
7,-10.6
8,0.0
9,0.0
10,0.0
11,0.0
12,0.0
13,0.0
14,6.304936391237775
15,-11.379389729325709
16,2.8260111631255997
17,-9.03099723290137
18,6.86884753906404
2,1, 1, 1, 0, 8, 0.00,15.00,Tuesday
7,-10.45
8,0.0
9,0.0
10,0.0
11,0.0
12,0.0
13,0.0
14,6.249167014282627
15,-11.329337981940178
16,2.8003214941380749
17,-8.975717043202394
18,6.811383342357058
2,1, 1, 1, 0, 8,15.00,30.00,Tuesday
7,-10.3
8,201.90124889065189
9,1.0
10,22.819555959623899
11,1.0
12,22.819555959623899
13,201.90124889065189
14,6.321540752822745
15,-9.655298842405875
16,3.0680427282274538
17,-8.661883600610225
18,6.774177365136957
2,1, 1, 1, 0, 8,30.00,45.00,Tuesday
7,-10.15
8,991.3371557883204
9,1.0
10,109.75755355442667
11,1.0
12,109.75755355442667
13,991.3371557883204
14,6.744229737161415
15,-3.278974161632448
16,4.227538504696781
17,-7.6235085167459719
18,6.813678323276566
2,1, 1, 1, 0, 8,45.00,60.00,Tuesday
7,-10.0
8,1802.6401946028946
9,1.0
10,195.8764694434918
11,1.0
12,195.8764694434918
13,1802.6401946028946
14,7.27736645796838
15,3.1935889631566258
16,5.509505521141648
17,-6.593267130968798
18,6.937838847474193
2,1, 1, 1, 0, 9, 0.00,15.00,Tuesday
7,-9.725
8,2611.1487935142
9,1.0
10,278.97248314719988
11,1.0
12,278.97248314719988
13,2611.1487935142
14,7.750535058153115
15,8.374847835397148
16,6.8234690746458
17,-5.671179533257828
18,7.12164994833493
2,1, 1, 1, 0, 9,15.00,30.00,Tuesday
7,-9.45
8,3463.4095065546814
9,1.0
10,364.91995730569456
11,1.0
12,364.91995730569456
13,3463.4095065546814
14,8.228393856351289
15,13.448863021138792
16,8.219893293337464
17,-4.740154573754467
18,7.353289305843477
2,1, 1, 1, 0, 9,30.00,45.00,Tuesday
7,-9.175
8,4027.2619560129285
9,1.0
10,420.35879993239237
11,1.0
12,420.35879993239237
13,4027.2619560129285
14,8.574055084751328
15,16.205445027285206
16,9.138054258904959
17,-4.156377178237108
18,7.61134512171894
2,1, 1, 1, 0, 9,45.00,60.00,Tuesday
7,-8.9
8,4612.586872600427
9,1.0
10,478.00138373643099
11,1.0
12,478.00138373643099
13,4612.586872600427
14,8.977468120595964
15,19.199507947388026
16,10.045752401499385
17,-3.5615051716009704
18,7.88508790101095
2,1, 1, 1, 0,10, 0.00,15.00,Tuesday
7,-8.350000000000002
8,5210.278053702696
9,1.0
10,536.9185644770597
11,1.0
12,536.9185644770597
13,5210.278053702696
14,9.331219465059466
15,20.313376140777469
16,10.987944143971618
17,-2.9158137775649495
18,8.174932247933058
2,1, 1, 1, 0,10,15.00,30.00,Tuesday
7,-7.800000000000001
8,5828.617669981737
9,1.0
10,598.0969199229219
11,1.0
12,598.0969199229219
13,5828.617669981737
14,9.716959743762326
15,21.56362564254263
16,11.94698953150845
17,-2.2676676273592877
18,8.311506052448891
2,1, 1, 1, 0,10,30.00,45.00,Tuesday
7,-7.25
8,6234.255634937492
9,1.0
10,637.6133352894237
11,1.0
12,637.6133352894237
13,6234.255634937492
14,9.980204409565369
15,21.619533407216819
16,12.636205878080773
17,-1.8041267713841763
18,8.575696494037166
2,1, 1, 1, 0,10,45.00,60.00,Tuesday
7,-6.7
8,6633.918768123914
9,1.0
10,676.6412284283772
11,1.0
12,676.6412284283772
13,6633.918768123914
14,10.235902599907759
15,21.776495336445586
16,13.266198803126486
17,-1.3457087384538227
18,8.771109873712096
2,1, 1, 1, 0,11, 0.00,15.00,Tuesday
7,-6.275
8,7026.311009924704
9,1.0
10,715.0112779846514
11,1.0
12,715.0112779846514
13,7026.311009924704
14,10.642508487344703
15,23.87607838173175
16,13.963439937967508
17,-0.6715738567916105
18,9.224206299193366
2,1, 1, 1, 0,11,15.00,30.00,Tuesday
7,-5.85
8,7409.466825320544
9,1.0
10,752.5077794605232
11,1.0
12,752.5077794605232
13,7409.466825320544
14,11.100930122396245
15,25.813261940640673
16,14.712528316398278
17,-0.007835263233346268
18,9.648989477704053
2,1, 1, 1, 0,11,30.00,45.00,Tuesday
7,-5.425
8,7295.593525131805
9,1.0
10,742.5988714321785
11,1.0
12,742.5988714321785
13,7295.593525131805
14,11.382097574133347
15,25.665211380263576
16,14.962670924398083
17,0.3070436294104866
18,10.042399934554059
2,1, 1, 1, 0,11,45.00,60.00,Tuesday
7,-5.0
8,7132.881859566821
9,1.0
10,727.8169025450712
11,1.0
12,727.8169025450712
13,7132.881859566821
14,11.649062980470502
15,25.437000842450379
16,15.115057187699108
17,0.5921915983321924
18,10.389396051155263
2,1, 1, 1, 0,12, 0.00,15.00,Tuesday
7,-4.575
8,6853.067094848291
9,1.0
10,700.3759009170325
11,1.0
12,700.3759009170325
13,6853.067094848291
14,11.840266751840972
15,24.69507388195796
16,15.12213575951182
17,0.8284765446783808
18,10.687741920369384
2,1, 1, 1, 0,12,15.00,30.00,Tuesday
7,-4.15
8,6645.5482486554
9,1.0
10,681.6705029034473
11,1.0
12,681.6705029034473
13,6645.5482486554
14,12.01825005915948
15,24.36448223398535
16,15.176482017552303
17,1.1238077450361744
18,10.948956350011106
2,1, 1, 1, 0,12,30.00,45.00,Tuesday
7,-3.7249999999999998
8,5834.237887300608
9,1.0
10,602.01865277251
11,1.0
12,602.01865277251
13,5834.237887300608
14,11.965866832265125
15,21.337313142370218
16,14.577239686256462
17,0.9956824861178575
18,11.14816997069604
2,1, 1, 1, 0,12,45.00,60.00,Tuesday
7,-3.3
8,4764.895369242384
9,1.0
10,493.55004396206007
11,1.0
12,493.55004396206007
13,4764.895369242384
14,11.76922667925156
15,17.1594415480056
16,13.543022109811659
17,0.6368559469699449
18,11.255906385471546
2,1, 1, 1, 0,13, 0.00,15.00,Tuesday
7,-3.0249999999999996
8,3934.3560573309525
9,1.0
10,412.335026418112
11,1.0
12,412.335026418112
13,3934.3560573309525
14,11.635017063871763
15,14.31637450362482
16,12.703762624180968
17,0.4060461017157877
18,11.290219462636538
2,1, 1, 1, 0,13,15.00,30.00,Tuesday
7,-2.75
8,2881.5535554807509
9,1.0
10,305.94037763660148
11,1.0
12,305.94037763660148
13,2881.5535554807509
14,11.306321999861903
15,10.143955268134898
16,11.502789314261463
17,-0.03396670427525805
18,11.262060619891092
2,1, 1, 1, 0,13,30.00,45.00,Tuesday
7,-2.475
8,2630.756393011569
9,1.0
10,281.0763483922329
11,1.0
12,281.0763483922329
13,2630.756393011569
14,11.278587346710994
15,9.6325831631853
16,11.188740937005605
17,0.10663647814635624
18,11.214605296333068
2,1, 1, 1, 0,13,45.00,60.00,Tuesday
7,-2.2
8,2385.1836820664209
9,1.0
10,256.7721209415886
11,1.0
12,256.7721209415886
13,2385.1836820664209
14,11.239753683592069
15,9.026436800814249
16,10.977837459219586
17,0.2753063295338052
18,11.174430797775547
2,1, 1, 1, 0,14, 0.00,15.00,Tuesday
7,-1.9250000000000003
8,1948.4524839723627
9,1.0
10,210.73276284570657
11,1.0
12,210.73276284570657
13,1948.4524839723627
14,11.08072884276804
15,7.479911922702976
16,10.478217602077848
17,0.2453547180532496
18,11.137145275401956
2,1, 1, 1, 0,14,15.00,30.00,Tuesday
7,-1.6500000000000002
8,1730.8547564882366
9,1.0
10,189.38488290342594
11,1.0
12,189.38488290342594
13,1730.8547564882366
14,11.041673130106164
15,7.077878843473969
16,10.252405926577695
17,0.39390034776755558
18,11.102625421278436
2,1, 1, 1, 0,14,30.00,45.00,Tuesday
7,-1.375
8,1650.745600283003
9,1.0
10,179.3940297802914
11,1.0
12,179.3940297802914
13,1650.745600283003
14,11.027357723162432
15,7.202236107441666
16,10.20705662364469
17,0.6398610885606786
18,11.072538954275077
2,1, 1, 1, 0,14,45.00,60.00,Tuesday
7,-1.1
8,1569.721240896898
9,1.0
10,169.43349014176136
11,1.0
12,169.43349014176136
13,1569.721240896898
14,11.00909873657167
15,7.302930453236044
16,10.154341878303854
17,0.8844889752892868
18,11.046412100245972
2,1, 1, 1, 0,15, 0.00,15.00,Tuesday
7,-1.1
8,1652.230084991102
9,1.0
10,178.15692317953907
11,1.0
12,178.15692317953907
13,1652.230084991102
14,11.073782877977694
15,8.12225724620565
16,10.268920751322753
17,1.0151069745120367
18,11.028641503678731
2,1, 1, 1, 0,15,15.00,30.00,Tuesday
7,-1.1
8,1552.2247884368049
9,1.0
10,166.40516310952945
11,1.0
12,166.40516310952945
13,1552.2247884368049
14,11.017921735301432
15,7.760790710855282
16,10.14676118151283
17,0.975585766196275
18,11.01348137099816
2,1, 1, 1, 0,15,30.00,45.00,Tuesday
7,-1.1
8,1308.808051722424
9,1.0
10,140.8967369711617
11,1.0
12,140.8967369711617
13,1308.808051722424
14,10.878160622150478
15,6.549783786276951
16,9.804398454766215
17,0.789952916491643
18,10.990572296880183
2,1, 1, 1, 0,15,45.00,60.00,Tuesday
7,-1.1
8,1077.042361016393
9,1.0
10,116.57355796743004
11,1.0
12,116.57355796743004
13,1077.042361016393
14,10.769555624571364
15,5.3523690794530289
16,9.458517262718488
17,0.5958179519506075
18,10.945468559338896
2,1, 1, 1, 0,16, 0.00,15.00,Tuesday
7,-1.1
8,854.8022681368379
9,1.0
10,93.14939272689483
11,1.0
12,93.14939272689483
13,854.8022681368379
14,10.651998479928987
15,4.303624552331093
16,9.153120547198285
17,0.4884528646546187
18,10.878853182321049
2,1, 1, 1, 0,16,15.00,30.00,Tuesday
7,-1.1
8,530.6627969458009
9,1.0
10,57.94047897402063
11,1.0
12,57.94047897402063
13,530.6627969458009
14,10.440117213753436
15,2.1843831984151018
16,8.679283933788668
17,0.24729485526336249
18,10.786238047228
2,1, 1, 1, 0,16,30.00,45.00,Tuesday
7,-1.1
8,411.4370117108624
9,1.0
10,45.38251793443488
11,1.0
12,45.38251793443488
13,411.4370117108624
14,10.35369182447425
15,1.5794280144741964
16,8.463850786882972
17,0.2288648365540098
18,10.683200398609828
2,1, 1, 1, 0,16,45.00,60.00,Tuesday
7,-1.1
8,287.2102920056796
9,1.0
10,32.02625108222755
11,1.0
12,32.02625108222755
13,287.2102920056796
14,10.227448970352232
15,0.7227436811078776
16,8.267286969215434
17,0.21027714942567855
18,10.582637851076296
2,1, 1, 1, 0,17, 0.00,15.00,Tuesday
7,-1.1
8,157.53444289826718
9,1.0
10,17.762198626050539
11,1.0
12,17.762198626050539
13,157.53444289826718
14,10.077437122213992
15,-0.5195574408026837
16,8.01929312400955
17,0.08305617511155106
18,10.482617264174517
2,1, 1, 1, 0,17,15.00,30.00,Tuesday
7,-1.1
8,0.0
9,0.0
10,0.0
11,0.0
12,0.0
13,0.0
14,9.876960505232184
15,-2.3525734978333339
16,7.6927693494918689
17,-0.17200182676799614
18,10.36961257629232
2,1, 1, 1, 0,17,30.00,45.00,Tuesday
7,-1.1
8,0.0
9,0.0
10,0.0
11,0.0
12,0.0
13,0.0
14,9.813068192264302
15,-2.4842057177859049
16,7.6055181736824128
17,-0.1335856795965924
18,10.259319881091138
2,1, 1, 1, 0,17,45.00,60.00,Tuesday
7,-1.1
8,0.0
9,0.0
10,0.0
11,0.0
12,0.0
13,0.0
14,9.7328110588961
15,-2.667784657546234
16,7.5599537059992489
17,-0.08133789419713367
18,10.166218225615652
2,1, 1, 1, 0,18, 0.00,15.00,Tuesday
7,-1.25
8,0.0
9,0.0
10,0.0
11,0.0
12,0.0
13,0.0
14,9.664125397684126
15,-2.816594115338119
16,7.4647496519926339
17,-0.22084207658838296
18,10.090571838078223
2,1, 1, 1, 0,18,15.00,30.00,Tuesday
7,-1.4
8,0.0
9,0.0
10,0.0
11,0.0
12,0.0
13,0.0
14,9.60109532156086
15,-2.9690787453395028
16,7.382129498592235
17,-0.35431975242124738
18,10.026571499662439
2,1, 1, 1, 0,18,30.00,45.00,Tuesday
7,-1.5499999999999999
8,0.0
9,0.0
10,0.0
11,0.0
12,0.0
13,0.0
14,9.542306045601413
15,-3.121217086092117
16,7.304263146637254
17,-0.48684757995278007
18,9.968595380554538
2,1, 1, 1, 0,18,45.00,60.00,Tuesday
7,-1.7
8,0.0
9,0.0
10,0.0
11,0.0
12,0.0
13,0.0
14,9.485425318247789
15,-3.2735227363098318
16,7.229286022896588
17,-0.6187146119477802
18,9.913289741575703
2,1, 1, 1, 0,19, 0.00,15.00,Tuesday
7,-1.825
8,0.0
9,0.0
10,0.0
11,0.0
12,0.0
13,0.0
14,9.45191517276176
15,-3.1376765258582695
16,7.134707622887618
17,-0.8175242640409124
18,9.862481017148586
2,1, 1, 1, 0,19,15.00,30.00,Tuesday
7,-1.9500000000000002
8,0.0
9,0.0
10,0.0
11,0.0
12,0.0
13,0.0
14,9.417041272928567
15,-3.0817524182996167
16,7.056520821212871
17,-1.0003371149688292
18,9.817950378148196
2,1, 1, 1, 0,19,30.00,45.00,Tuesday
7,-2.075
8,0.0
9,0.0
10,0.0
11,0.0
12,0.0
13,0.0
14,9.378228862409096
15,-3.158521420223221
16,6.99848368599811
17,-1.1274334809248786
18,9.778402436418976
2,1, 1, 1, 0,19,45.00,60.00,Tuesday
7,-2.2
8,0.0
9,0.0
10,0.0
11,0.0
12,0.0
13,0.0
14,9.341029804774522
15,-3.1457862353153129
16,6.9246791984334099
17,-1.3001788593578568
18,9.740659036940864
2,1, 1, 1, 0,20, 0.00,15.00,Tuesday
7,-1.9250000000000003
8,0.0
9,0.0
10,0.0
11,0.0
12,0.0
13,0.0
14,9.32144898512678
15,-2.8469268692927489
16,6.955208758375875
17,-1.1031658649000065
18,9.705617790592245
2,1, 1, 1, 0,20,15.00,30.00,Tuesday
7,-1.6500000000000002
8,0.0
9,0.0
10,0.0
11,0.0
12,0.0
13,0.0
14,9.301203327358565
15,-2.550914529223469
16,6.983694407830683
17,-0.8944283963016346
18,9.673965099170064
2,1, 1, 1, 0,20,30.00,45.00,Tuesday
7,-1.375
8,0.0
9,0.0
10,0.0
11,0.0
12,0.0
13,0.0
14,9.282929363966222
15,-2.256029552967015
16,7.013542031943189
17,-0.6832853747033028
18,9.645243430343499
2,1, 1, 1, 0,20,45.00,60.00,Tuesday
7,-1.1
8,0.0
9,0.0
10,0.0
11,0.0
12,0.0
13,0.0
14,9.266278209894086
15,-1.9623144687187504
16,7.045541680285282
17,-0.4697873003352129
18,9.618675632046216
2,1, 1, 1, 0,21, 0.00,15.00,Tuesday
7,-1.25
8,0.0
9,0.0
10,0.0
11,0.0
12,0.0
13,0.0
14,9.210993782159087
15,-2.2337719988453514
16,7.008294782570829
17,-0.5184056040335463
18,9.587549163509623
2,1, 1, 1, 0,21,15.00,30.00,Tuesday
7,-1.4
8,0.0
9,0.0
10,0.0
11,0.0
12,0.0
13,0.0
14,9.156477631463528
15,-2.4451691131563577
16,6.952180824572338
17,-0.6012352322186985
18,9.547309744617229
2,1, 1, 1, 0,21,30.00,45.00,Tuesday
7,-1.5499999999999999
8,0.0
9,0.0
10,0.0
11,0.0
12,0.0
13,0.0
14,9.089307370770446
15,-2.7765760916393447
16,6.908032593366329
17,-0.6352398809232227
18,9.497399247029513
2,1, 1, 1, 0,21,45.00,60.00,Tuesday
7,-1.7
8,0.0
9,0.0
10,0.0
11,0.0
12,0.0
13,0.0
14,9.016890900749992
15,-3.2135413132544645
16,6.8645926457259069
17,-0.6364758395482113
18,9.440223117261209
2,1, 1, 1, 0,22, 0.00,15.00,Tuesday
7,-1.5499999999999999
8,0.0
9,0.0
10,0.0
11,0.0
12,0.0
13,0.0
14,9.008045043507329
15,-2.7435389058705295
16,6.813434372678614
17,-0.6505051518327036
18,9.38879148643382
2,1, 1, 1, 0,22,15.00,30.00,Tuesday
7,-1.4
8,0.0
9,0.0
10,0.0
11,0.0
12,0.0
13,0.0
14,8.98990988684159
15,-2.425251813942655
16,6.801478068736117
17,-0.6301595556207076
18,9.350069685028137
2,1, 1, 1, 0,22,30.00,45.00,Tuesday
7,-1.25
8,0.0
9,0.0
10,0.0
11,0.0
12,0.0
13,0.0
14,8.971378031818937
15,-2.210479185439655
16,6.799474770711242
17,-0.5474105436309742
18,9.321603788917928
2,1, 1, 1, 0,22,45.00,60.00,Tuesday
7,-1.1
8,0.0
9,0.0
10,0.0
11,0.0
12,0.0
13,0.0
14,8.956693782554647
15,-1.9374721890078497
16,6.793265306893147
17,-0.49305475073560958
18,9.298069245147545
2,1, 1, 1, 0,23, 0.00,15.00,Tuesday
7,-1.25
8,0.0
9,0.0
10,0.0
11,0.0
12,0.0
13,0.0
14,8.900530784695994
15,-2.240692755681575
16,6.698223220394482
17,-0.7715889665995519
18,9.269066210006449
2,1, 1, 1, 0,23,15.00,30.00,Tuesday
7,-1.4
8,0.0
9,0.0
10,0.0
11,0.0
12,0.0
13,0.0
14,8.846532543214626
15,-2.5454085864164806
16,6.5912565720364
17,-1.062627957682821
18,9.229804504459504
2,1, 1, 1, 0,23,30.00,45.00,Tuesday
7,-1.5499999999999999
8,0.0
9,0.0
10,0.0
11,0.0
12,0.0
13,0.0
14,8.787654620443798
15,-2.850773321770491
16,6.482247140075174
17,-1.3550887003046342
18,9.181741912630418
2,1, 1, 1, 0,23,45.00,60.00,Tuesday
7,-1.7
8,0.0
9,0.0
10,0.0
11,0.0
12,0.0
13,0.0
14,8.724881774634746
15,-3.1564825788340169
16,6.369067612599963
17,-1.6494218567154349
18,9.127990296245505
2,1, 1, 1, 0,24, 0.00,15.00,Tuesday
7,-1.7
8,0.0
9,0.0
10,0.0
11,0.0
12,0.0
13,0.0
14,8.677611695879533
15,-3.210775668392311
16,6.311487637613595
17,-1.7173711478904466
18,9.07415218639866
2,1, 1, 1, 0,24,15.00,30.00,Tuesday
7,-1.7
8,0.0
9,0.0
10,0.0
11,0.0
12,0.0
13,0.0
14,8.628367392188793
15,-3.2656000809094358
16,6.258412576381943
17,-1.7817894669094586
18,9.023073768318648
2,1, 1, 1, 0,24,30.00,45.00,Tuesday
7,-1.7
8,0.0
9,0.0
10,0.0
11,0.0
12,0.0
13,0.0
14,8.580334764758755
15,-3.320317320424127
16,6.205349711808481
17,-1.8456636854645013
18,8.974580046681407
2,1, 1, 1, 0,24,45.00,60.00,Tuesday
7,-1.7
8,0.0
9,0.0
10,0.0
11,0.0
12,0.0
13,0.0
14,8.53317147472901
15,-3.3750389789782258
16,6.153287323729671
17,-1.9091101629541072
18,8.927561500194078
End of Data
 Number of Records Written=        1152
