Program Version,EnergyPlus, Version 9.5.0-de239b2e5f, YMD=2022.11.01 22:08
1,5,Environment Title[],Latitude[deg],Longitude[deg],Time Zone[],Elevation[m]
2,8,Day of Simulation[],Month[],Day of Month[],DST Indicator[1=yes 0=no],Hour[],StartMinute[],EndMinute[],DayType
3,5,Cumulative Day of Simulation[],Month[],Day of Month[],DST Indicator[1=yes 0=no],DayType  ! When Daily Report Variables Requested
4,2,Cumulative Days of Simulation[],Month[]  ! When Monthly Report Variables Requested
5,1,Cumulative Days of Simulation[] ! When Run Period Report Variables Requested
6,1,Calendar Year of Simulation[] ! When Annual Report Variables Requested
7,1,Environment,Site Outdoor Air Drybulb Temperature [C] !TimeStep
8,1,ZONE ONE,Zone Windows Total Transmitted Solar Radiation Rate [W] !TimeStep
9,1,ZN001:WALL001,Surface Outside Face Sunlit Fraction [] !TimeStep
10,1,ZN001:WALL001,Surface Outside Face Incident Solar Radiation Rate per Area [W/m2] !TimeStep
11,1,ZN001:WALL001:WIN001,Surface Outside Face Sunlit Fraction [] !TimeStep
12,1,ZN001:WALL001:WIN001,Surface Outside Face Incident Solar Radiation Rate per Area [W/m2] !TimeStep
13,1,ZN001:WALL001:WIN001,Surface Window Transmitted Solar Radiation Rate [W] !TimeStep
14,1,ZN001:WALL001,Surface Inside Face Temperature [C] !TimeStep
15,1,ZN001:WALL001,Surface Outside Face Temperature [C] !TimeStep
16,1,ZN001:WALL001:WIN001,Surface Inside Face Temperature [C] !TimeStep
17,1,ZN001:WALL001:WIN001,Surface Outside Face Temperature [C] !TimeStep
18,1,ZONE ONE,Zone Mean Air Temperature [C] !TimeStep
End of Data Dictionary
1,RUN PERIOD 1,  41.98, -87.92,  -6.00, 201.00
2,1, 1, 1, 0, 1, 0.00,15.00,Tuesday
7,-4.324999999999999
8,0.0
9,0.0
10,0.0
11,0.0
12,0.0
13,0.0
14,-0.37750688221645187
15,-6.011178737444665
16,-1.5656003516980946
17,-5.449586289573517
18,-0.0825458911054773
2,1, 1, 1, 0, 1,15.00,30.00,Tuesday
7,-6.949999999999999
8,0.0
9,0.0
10,0.0
11,0.0
12,0.0
13,0.0
14,-0.5484899203135043
15,-8.47908392652273
16,-2.1921711774261896
17,-7.5372612485898
18,-0.15985832550376995
2,1, 1, 1, 0, 1,30.00,45.00,Tuesday
7,-9.575
8,0.0
9,0.0
10,0.0
11,0.0
12,0.0
13,0.0
14,-0.7404752230010164
15,-10.955878400474534
16,-2.8173883673912316
17,-9.631574432104117
18,-0.2710092618368358
2,1, 1, 1, 0, 1,45.00,60.00,Tuesday
7,-12.2
8,0.0
9,0.0
10,0.0
11,0.0
12,0.0
13,0.0
14,-0.9488952633329102
15,-13.43912802428163
16,-3.455425083520254
17,-11.734539243615018
18,-0.40717272387278749
2,1, 1, 1, 0, 2, 0.00,15.00,Tuesday
7,-12.075
8,0.0
9,0.0
10,0.0
11,0.0
12,0.0
13,0.0
14,-0.9967397933555231
15,-13.241033455718912
16,-3.5133657795290675
17,-11.593909464959666
18,-0.5310054182967789
2,1, 1, 1, 0, 2,15.00,30.00,Tuesday
7,-11.95
8,0.0
9,0.0
10,0.0
11,0.0
12,0.0
13,0.0
14,-1.061187289818549
15,-13.063645656216265
16,-3.5287957759563826
17,-11.444325311336911
18,-0.6237525859226785
2,1, 1, 1, 0, 2,30.00,45.00,Tuesday
7,-11.825
8,0.0
9,0.0
10,0.0
11,0.0
12,0.0
13,0.0
14,-1.1087963740591318
15,-12.884990540297192
16,-3.5400690615886107
17,-11.294386486325493
18,-0.6890016918089211
2,1, 1, 1, 0, 2,45.00,60.00,Tuesday
7,-11.7
8,0.0
9,0.0
10,0.0
11,0.0
12,0.0
13,0.0
14,-1.1448749605514393
15,-12.706388069651146
16,-3.5350040198879926
17,-11.151599709141408
18,-0.7369283981579873
2,1, 1, 1, 0, 3, 0.00,15.00,Tuesday
7,-11.549999999999999
8,0.0
9,0.0
10,0.0
11,0.0
12,0.0
13,0.0
14,-1.1793340671173685
15,-12.582912495740459
16,-3.531479400370131
17,-11.018048519387776
18,-0.7766855850542495
2,1, 1, 1, 0, 3,15.00,30.00,Tuesday
7,-11.399999999999999
8,0.0
9,0.0
10,0.0
11,0.0
12,0.0
13,0.0
14,-1.210072796488547
15,-12.460914133711807
16,-3.5256901217618408
17,-10.88524272751306
18,-0.813231451170586
2,1, 1, 1, 0, 3,30.00,45.00,Tuesday
7,-11.25
8,0.0
9,0.0
10,0.0
11,0.0
12,0.0
13,0.0
14,-1.2386351474590938
15,-12.340575364307928
16,-3.517875770354408
17,-10.752660483275236
18,-0.8481910107810804
2,1, 1, 1, 0, 3,45.00,60.00,Tuesday
7,-11.1
8,0.0
9,0.0
10,0.0
11,0.0
12,0.0
13,0.0
14,-1.267591283243329
15,-12.22199801020824
16,-3.5090326305764849
17,-10.62051500894745
18,-0.8820357663673593
2,1, 1, 1, 0, 4, 0.00,15.00,Tuesday
7,-11.1
8,0.0
9,0.0
10,0.0
11,0.0
12,0.0
13,0.0
14,-1.3008648515445878
15,-12.189813262023887
16,-3.5436568110544046
17,-10.627370689261796
18,-0.9157898150571485
2,1, 1, 1, 0, 4,15.00,30.00,Tuesday
7,-11.1
8,0.0
9,0.0
10,0.0
11,0.0
12,0.0
13,0.0
14,-1.332719400022227
15,-12.15884405557642
16,-3.5739134686590434
17,-10.641340569158502
18,-0.9497956363990289
2,1, 1, 1, 0, 4,30.00,45.00,Tuesday
7,-11.1
8,0.0
9,0.0
10,0.0
11,0.0
12,0.0
13,0.0
14,-1.3648071421197366
15,-12.129627422118503
16,-3.603274631297154
17,-10.655445409219567
18,-0.983948520450819
2,1, 1, 1, 0, 4,45.00,60.00,Tuesday
7,-11.1
8,0.0
9,0.0
10,0.0
11,0.0
12,0.0
13,0.0
14,-1.396937828236019
15,-12.101977551795855
16,-3.63251729652211
17,-10.669141881937435
18,-1.0180972357117946
2,1, 1, 1, 0, 5, 0.00,15.00,Tuesday
7,-10.975
8,0.0
9,0.0
10,0.0
11,0.0
12,0.0
13,0.0
14,-1.422371622519074
15,-11.979567171661702
16,-3.628549686303245
17,-10.579216208334856
18,-1.0511166788113507
2,1, 1, 1, 0, 5,15.00,30.00,Tuesday
7,-10.85
8,0.0
9,0.0
10,0.0
11,0.0
12,0.0
13,0.0
14,-1.448550963109539
15,-11.857302385112816
16,-3.6257998294511255
17,-10.481571135318803
18,-1.0826025869971679
2,1, 1, 1, 0, 5,30.00,45.00,Tuesday
7,-10.725
8,0.0
9,0.0
10,0.0
11,0.0
12,0.0
13,0.0
14,-1.4737444386848886
15,-11.734981341913322
16,-3.623039930179175
17,-10.383166788842118
18,-1.1128108183380395
2,1, 1, 1, 0, 5,45.00,60.00,Tuesday
7,-10.6
8,0.0
9,0.0
10,0.0
11,0.0
12,0.0
13,0.0
14,-1.4981714195002847
15,-11.612673997926845
16,-3.6195568604708798
17,-10.284537829990257
18,-1.1421006006204262
2,1, 1, 1, 0, 6, 0.00,15.00,Tuesday
7,-10.6
8,0.0
9,0.0
10,0.0
11,0.0
12,0.0
13,0.0
14,-1.5310696278818535
15,-11.613366076605397
16,-3.644081015130155
17,-10.284814600801554
18,-1.1720328530867835
2,1, 1, 1, 0, 6,15.00,30.00,Tuesday
7,-10.6
8,0.0
9,0.0
10,0.0
11,0.0
12,0.0
13,0.0
14,-1.562477137397619
15,-11.613917222419652
16,-3.6704396050835159
17,-10.28904859759325
18,-1.203346271380165
2,1, 1, 1, 0, 6,30.00,45.00,Tuesday
7,-10.6
8,0.0
9,0.0
10,0.0
11,0.0
12,0.0
13,0.0
14,-1.5945220343336604
15,-11.614548984285621
16,-3.696486797052728
17,-10.294138873339989
18,-1.2357973174982496
2,1, 1, 1, 0, 6,45.00,60.00,Tuesday
7,-10.6
8,0.0
9,0.0
10,0.0
11,0.0
12,0.0
13,0.0
14,-1.6269285618219243
15,-11.615177330409054
16,-3.722838690608114
17,-10.299628958544759
18,-1.2688917877439404
2,1, 1, 1, 0, 7, 0.00,15.00,Tuesday
7,-10.6
8,0.0
9,0.0
10,0.0
11,0.0
12,0.0
13,0.0
14,-1.6560406397451586
15,-11.58867636705066
16,-3.7511400334611837
17,-10.309094024038587
18,-1.3017747750991687
2,1, 1, 1, 0, 7,15.00,30.00,Tuesday
7,-10.6
8,0.0
9,0.0
10,0.0
11,0.0
12,0.0
13,0.0
14,-1.6863302982106088
15,-11.56358291602742
16,-3.777859483567852
17,-10.31879097772844
18,-1.3341016422887267
2,1, 1, 1, 0, 7,30.00,45.00,Tuesday
7,-10.6
8,0.0
9,0.0
10,0.0
11,0.0
12,0.0
13,0.0
14,-1.7162870579123529
15,-11.539720542373783
16,-3.8044319200369047
17,-10.328516800137209
18,-1.3659626719362604
2,1, 1, 1, 0, 7,45.00,60.00,Tuesday
7,-10.6
8,0.0
9,0.0
10,0.0
11,0.0
12,0.0
13,0.0
14,-1.745992246142842
15,-11.517056649920232
16,-3.8306413466805226
17,-10.337960405384365
18,-1.397509286470875
2,1, 1, 1, 0, 8, 0.00,15.00,Tuesday
7,-10.45
8,0.0
9,0.0
10,0.0
11,0.0
12,0.0
13,0.0
14,-1.7778038661669707
15,-11.470021033529239
16,-3.8391420372664699
17,-10.308541969676753
18,-1.4293429364717572
2,1, 1, 1, 0, 8,15.00,30.00,Tuesday
7,-10.3
8,45.1906078222777
9,1.0
10,22.819555959623899
11,1.0
12,22.819555959623899
13,45.1906078222777
14,-1.7090727228273517
15,-9.797499137110782
16,-3.44595840118825
17,-9.923892013719126
18,-1.4484245876449469
2,1, 1, 1, 0, 8,30.00,45.00,Tuesday
7,-10.15
8,223.14256197642153
9,1.0
10,109.75755355442667
11,1.0
12,109.75755355442667
13,223.14256197642153
14,-1.3706144712341782
15,-3.444124964833674
16,-1.8065141142321864
17,-8.572602857443428
18,-1.41992242930593
2,1, 1, 1, 0, 8,45.00,60.00,Tuesday
7,-10.0
8,409.1613293294352
9,1.0
10,195.8764694434918
11,1.0
12,195.8764694434918
13,409.1613293294352
14,-0.9573168973165654
15,3.0504366368497406
16,-0.06482907379836434
17,-7.233758341930354
18,-1.3383135588471753
2,1, 1, 1, 0, 9, 0.00,15.00,Tuesday
7,-9.725
8,597.8135444241134
9,1.0
10,278.97248314719988
11,1.0
12,278.97248314719988
13,597.8135444241134
14,-0.6455221716585392
15,8.23583746483259
16,1.469058503364522
17,-6.063123435601369
18,-1.2127615110833834
2,1, 1, 1, 0, 9,15.00,30.00,Tuesday
7,-9.45
8,799.7939661926746
9,1.0
10,364.91995730569456
11,1.0
12,364.91995730569456
13,799.7939661926746
14,-0.30707654296776196
15,13.31773624553398
16,2.99831774324997
17,-4.9012369604033669
18,-1.050091666223607
2,1, 1, 1, 0, 9,30.00,45.00,Tuesday
7,-9.175
8,937.3425772559904
9,1.0
10,420.35879993239237
11,1.0
12,420.35879993239237
13,937.3425772559904
14,-0.081636252159369
15,16.07839974499662
16,4.004838082857191
17,-4.187452232469582
18,-0.868247034254927
2,1, 1, 1, 0, 9,45.00,60.00,Tuesday
7,-8.9
8,1081.087063227392
9,1.0
10,478.00138373643099
11,1.0
12,478.00138373643099
13,1081.087063227392
14,0.1859123832937689
15,19.0744371027877
16,5.01965966971261
17,-3.4451014486368765
18,-0.6745060740709512
2,1, 1, 1, 0,10, 0.00,15.00,Tuesday
7,-8.350000000000002
8,1228.6781661526659
9,1.0
10,536.9185644770597
11,1.0
12,536.9185644770597
13,1228.6781661526659
14,0.39111997659152555
15,20.197063945889164
16,6.063682273170855
17,-2.666284930117797
18,-0.46600637862545987
2,1, 1, 1, 0,10,15.00,30.00,Tuesday
7,-7.800000000000001
8,1381.7758707994843
9,1.0
10,598.0969199229219
11,1.0
12,598.0969199229219
13,1381.7758707994843
14,0.6189018976180573
15,21.453839259099334
16,7.127330531818416
17,-1.893324171215795
18,-0.24602997987259335
2,1, 1, 1, 0,10,30.00,45.00,Tuesday
7,-7.25
8,1484.649907919994
9,1.0
10,637.6133352894237
11,1.0
12,637.6133352894237
13,1484.649907919994
14,0.7815826326572766
15,21.516982912802065
16,7.867628466465646
17,-1.362714405701638
18,-0.028099118290111234
2,1, 1, 1, 0,10,45.00,60.00,Tuesday
7,-6.7
8,1585.99343908261
9,1.0
10,676.6412284283772
11,1.0
12,676.6412284283772
13,1585.99343908261
14,0.9575315855722233
15,21.67989819828862
16,8.58349725806363
17,-0.8382837141211894
18,0.1802108103194555
2,1, 1, 1, 0,11, 0.00,15.00,Tuesday
7,-6.275
8,1685.4173467880283
9,1.0
10,715.0112779846514
11,1.0
12,715.0112779846514
13,1685.4173467880283
14,1.2108402194389412
15,23.776908993662805
16,9.334617069559045
17,-0.08006593265361062
18,0.38297932915394497
2,1, 1, 1, 0,11,15.00,30.00,Tuesday
7,-5.85
8,1782.3756887548139
9,1.0
10,752.5077794605232
11,1.0
12,752.5077794605232
13,1782.3756887548139
14,1.4486432885057979
15,25.71152556526429
16,10.071854057944904
17,0.6546605439948507
18,0.5851132017873066
2,1, 1, 1, 0,11,30.00,45.00,Tuesday
7,-5.425
8,1756.3746426054536
9,1.0
10,742.5988714321785
11,1.0
12,742.5988714321785
13,1756.3746426054536
14,1.5736063550019644
15,25.56320121158373
16,10.138686200540065
17,0.9271523916036131
18,0.7728000426174283
2,1, 1, 1, 0,11,45.00,60.00,Tuesday
7,-5.0
8,1717.697733818433
9,1.0
10,727.8169025450712
11,1.0
12,727.8169025450712
13,1717.697733818433
14,1.6954071990812503
15,25.333308906305896
16,10.114573130894428
17,1.1619526813135508
18,0.9367993489898878
2,1, 1, 1, 0,12, 0.00,15.00,Tuesday
7,-4.575
8,1650.7812494037467
9,1.0
10,700.3759009170325
11,1.0
12,700.3759009170325
13,1650.7812494037467
14,1.7734559196057807
15,24.590160828644345
16,9.91650066565444
17,1.3217031203145098
18,1.0733040574035587
2,1, 1, 1, 0,12,15.00,30.00,Tuesday
7,-4.15
8,1599.2730029255022
9,1.0
10,681.6705029034473
11,1.0
12,681.6705029034473
13,1599.2730029255022
14,1.868679123209687
15,24.25913644233163
16,9.823218960218015
17,1.559722672888995
18,1.1887668490163808
2,1, 1, 1, 0,12,30.00,45.00,Tuesday
7,-3.7249999999999998
8,1400.8367123681397
9,1.0
10,602.01865277251
11,1.0
12,602.01865277251
13,1400.8367123681397
14,1.7771432874530378
15,21.23060648392784
16,8.868470213315732
17,1.238292610747294
18,1.268150467018807
2,1, 1, 1, 0,12,45.00,60.00,Tuesday
7,-3.3
8,1142.2091990338554
9,1.0
10,493.55004396206007
11,1.0
12,493.55004396206007
13,1142.2091990338554
14,1.60225830633694
15,17.051526373376416
16,7.433783515050095
17,0.6316722564552038
18,1.2976695512492854
2,1, 1, 1, 0,13, 0.00,15.00,Tuesday
7,-3.0249999999999996
8,937.99928358335
9,1.0
10,412.335026418112
11,1.0
12,412.335026418112
13,937.99928358335
14,1.4870591107221794
15,14.206102383011995
16,6.316417120569156
17,0.20663390420997986
18,1.2843692405582075
2,1, 1, 1, 0,13,15.00,30.00,Tuesday
7,-2.75
8,682.7303378358205
9,1.0
10,305.94037763660148
11,1.0
12,305.94037763660148
13,682.7303378358205
14,1.2619015041274045
15,10.032111384265015
16,4.787022067814746
17,-0.48068442568433059
18,1.231669713859794
2,1, 1, 1, 0,13,30.00,45.00,Tuesday
7,-2.475
8,621.2187629493926
9,1.0
10,281.0763483922329
11,1.0
12,281.0763483922329
13,621.2187629493926
14,1.2427896090847038
15,9.518167401280426
16,4.453250657964077
17,-0.40019514500352218
18,1.1712632289620167
2,1, 1, 1, 0,13,45.00,60.00,Tuesday
7,-2.2
8,560.9779797907793
9,1.0
10,256.7721209415886
11,1.0
12,256.7721209415886
13,560.9779797907793
14,1.2143835302915867
15,8.910764561640607
16,4.155811534913141
17,-0.2989621496029713
18,1.1231089878217285
2,1, 1, 1, 0,14, 0.00,15.00,Tuesday
7,-1.9250000000000003
8,456.9975476444308
9,1.0
10,210.73276284570657
11,1.0
12,210.73276284570657
13,456.9975476444308
14,1.1253618646183333
15,7.361512480615195
16,3.5002215379636825
17,-0.45421006530938259
18,1.082726971795836
2,1, 1, 1, 0,14,15.00,30.00,Tuesday
7,-1.6500000000000002
8,403.65177966058527
9,1.0
10,189.38488290342594
11,1.0
12,189.38488290342594
13,403.65177966058527
14,1.1067440452610978
15,6.953873907154292
16,3.2163691014148414
17,-0.37871474380642669
18,1.0494729632431222
2,1, 1, 1, 0,14,30.00,45.00,Tuesday
7,-1.375
8,385.69187167877
9,1.0
10,179.3940297802914
11,1.0
12,179.3940297802914
13,385.69187167877
14,1.1136601725097089
15,7.072773056892375
16,3.1357990327686595
17,-0.17721905353255353
18,1.0246453542004777
2,1, 1, 1, 0,14,45.00,60.00,Tuesday
7,-1.1
8,367.2371578505679
9,1.0
10,169.43349014176136
11,1.0
12,169.43349014176136
13,367.2371578505679
14,1.1180342573050993
15,7.168989632493099
16,3.054232835269488
17,0.022047876704334614
18,1.0076583951266387
2,1, 1, 1, 0,15, 0.00,15.00,Tuesday
7,-1.1
8,386.03527863075376
9,1.0
10,178.15692317953907
11,1.0
12,178.15692317953907
13,386.03527863075376
14,1.1616654074954216
15,7.982120382779454
16,3.2056847173709
17,0.15630760594365257
18,0.9999904058964608
2,1, 1, 1, 0,15,15.00,30.00,Tuesday
7,-1.1
8,362.5394465628341
9,1.0
10,166.40516310952945
11,1.0
12,166.40516310952945
13,362.5394465628341
14,1.1324245186784777
15,7.618252624238834
16,3.026393626646268
17,0.0620880427536008
18,0.9959807045038193
2,1, 1, 1, 0,15,30.00,45.00,Tuesday
7,-1.1
8,304.53962569620048
9,1.0
10,140.8967369711617
11,1.0
12,140.8967369711617
13,304.53962569620048
14,1.0543621642559278
15,6.409683978847688
16,2.5945718852759116
17,-0.22903008387834235
18,0.9848147506011402
2,1, 1, 1, 0,15,45.00,60.00,Tuesday
7,-1.1
8,249.57120487655383
9,1.0
10,116.57355796743004
11,1.0
12,116.57355796743004
13,249.57120487655383
14,0.9722507666766969
15,5.1970006346068688
16,2.1582020188914727
17,-0.5193926781668097
18,0.9602121940615379
2,1, 1, 1, 0,16, 0.00,15.00,Tuesday
7,-1.1
8,197.2037491906363
9,1.0
10,93.14939272689483
11,1.0
12,93.14939272689483
13,197.2037491906363
14,0.8892412953613397
15,4.134236705527963
16,1.743928942390312
17,-0.7589250271756782
18,0.9232214110183423
2,1, 1, 1, 0,16,15.00,30.00,Tuesday
7,-1.1
8,121.88360782697856
9,1.0
10,57.94047897402063
11,1.0
12,57.94047897402063
13,121.88360782697856
14,0.7364221929312607
15,2.0008639686019098
16,1.076771569014113
17,-1.2000331948913754
18,0.8719020258670845
2,1, 1, 1, 0,16,30.00,45.00,Tuesday
7,-1.1
8,94.03964581799005
9,1.0
10,45.38251793443488
11,1.0
12,45.38251793443488
13,94.03964581799005
14,0.6872457913555701
15,1.3824403026210893
16,0.792354623824906
17,-1.355000979895351
18,0.8133230047915891
2,1, 1, 1, 0,16,45.00,60.00,Tuesday
7,-1.1
8,65.36596956126205
9,1.0
10,32.02625108222755
11,1.0
12,32.02625108222755
13,65.36596956126205
14,0.6055398131985765
15,0.5060108844397022
16,0.5094949504580768
17,-1.5261477902272987
18,0.7530451426419891
2,1, 1, 1, 0,17, 0.00,15.00,Tuesday
7,-1.1
8,35.7476436714217
9,1.0
10,17.762198626050539
11,1.0
12,17.762198626050539
13,35.7476436714217
14,0.49567612434959709
15,-0.7627533332490647
16,0.1773379699163229
17,-1.8248410156630258
18,0.6884446604101289
2,1, 1, 1, 0,17,15.00,30.00,Tuesday
7,-1.1
8,0.0
9,0.0
10,0.0
11,0.0
12,0.0
13,0.0
14,0.3391837767154926
15,-2.6071777546911405
16,-0.2162490304824587
17,-2.1499520642198606
18,0.6095405561557512
2,1, 1, 1, 0,17,30.00,45.00,Tuesday
7,-1.1
8,0.0
9,0.0
10,0.0
11,0.0
12,0.0
13,0.0
14,0.3023216407732353
15,-2.750091024639986
16,-0.3030091143380105
17,-2.2282751926533139
18,0.5261225219065293
2,1, 1, 1, 0,17,45.00,60.00,Tuesday
7,-1.1
8,0.0
9,0.0
10,0.0
11,0.0
12,0.0
13,0.0
14,0.24811899198416685
15,-2.9549416004194799
16,-0.35979749699038168
17,-2.3120200498708529
18,0.4508185144208351
2,1, 1, 1, 0,18, 0.00,15.00,Tuesday
7,-1.25
8,0.0
9,0.0
10,0.0
11,0.0
12,0.0
13,0.0
14,0.20431108252500383
15,-3.1010177689118305
16,-0.4347996090418178
17,-2.4517968723638434
18,0.3893926004097494
2,1, 1, 1, 0,18,15.00,30.00,Tuesday
7,-1.4
8,0.0
9,0.0
10,0.0
11,0.0
12,0.0
13,0.0
14,0.16517977977140259
15,-3.2534271088734587
16,-0.4975143136988436
17,-2.576398021130558
18,0.340766589618725
2,1, 1, 1, 0,18,30.00,45.00,Tuesday
7,-1.5499999999999999
8,0.0
9,0.0
10,0.0
11,0.0
12,0.0
13,0.0
14,0.12927730608495956
15,-3.4051439831664456
16,-0.5587957765086458
17,-2.706342410397383
18,0.30114478255701729
2,1, 1, 1, 0,18,45.00,60.00,Tuesday
7,-1.7
8,0.0
9,0.0
10,0.0
11,0.0
12,0.0
13,0.0
14,0.09618581139616647
15,-3.556912465102453
16,-0.6170190363875463
17,-2.8353675714639055
18,0.2670353245236962
2,1, 1, 1, 0,19, 0.00,15.00,Tuesday
7,-1.825
8,0.0
9,0.0
10,0.0
11,0.0
12,0.0
13,0.0
14,0.09311036174302541
15,-3.388337695489379
16,-0.6369570656236192
17,-2.8408397105322367
18,0.24003956713549202
2,1, 1, 1, 0,19,15.00,30.00,Tuesday
7,-1.9500000000000002
8,0.0
9,0.0
10,0.0
11,0.0
12,0.0
13,0.0
14,0.0892507660957085
15,-3.3036534176071528
16,-0.6531883172766584
17,-2.8570452112435875
18,0.22137348237300975
2,1, 1, 1, 0,19,30.00,45.00,Tuesday
7,-2.075
8,0.0
9,0.0
10,0.0
11,0.0
12,0.0
13,0.0
14,0.08055225904030299
15,-3.37254737298418
16,-0.6814299819989174
17,-2.937309800087519
18,0.20914034355973566
2,1, 1, 1, 0,19,45.00,60.00,Tuesday
7,-2.2
8,0.0
9,0.0
10,0.0
11,0.0
12,0.0
13,0.0
14,0.07433203765853039
15,-3.3344109865356006
16,-0.694962313548956
17,-2.975870511004814
18,0.20029240100591978
2,1, 1, 1, 0,20, 0.00,15.00,Tuesday
7,-1.9250000000000003
8,0.0
9,0.0
10,0.0
11,0.0
12,0.0
13,0.0
14,0.083858055241301
15,-3.0291314667596258
16,-0.6281357521155542
17,-2.7356398682268265
18,0.19439679413675096
2,1, 1, 1, 0,20,15.00,30.00,Tuesday
7,-1.6500000000000002
8,0.0
9,0.0
10,0.0
11,0.0
12,0.0
13,0.0
14,0.09581195151288054
15,-2.7272702039819549
16,-0.5608204907110803
17,-2.49013614512387
18,0.19164080017754404
2,1, 1, 1, 0,20,30.00,45.00,Tuesday
7,-1.375
8,0.0
9,0.0
10,0.0
11,0.0
12,0.0
13,0.0
14,0.10903795374907291
15,-2.426941514428538
16,-0.49126777407553848
17,-2.24321573008865
18,0.191718293487951
2,1, 1, 1, 0,20,45.00,60.00,Tuesday
7,-1.1
8,0.0
9,0.0
10,0.0
11,0.0
12,0.0
13,0.0
14,0.12372322681400212
15,-2.128031566843491
16,-0.41997989906792557
17,-1.9951389811789682
18,0.1940364090281066
2,1, 1, 1, 0,21, 0.00,15.00,Tuesday
7,-1.25
8,0.0
9,0.0
10,0.0
11,0.0
12,0.0
13,0.0
14,0.09242501867480012
15,-2.425818201958999
16,-0.4780643566166418
17,-2.187563544681268
18,0.19285043355551496
2,1, 1, 1, 0,21,15.00,30.00,Tuesday
7,-1.4
8,0.0
9,0.0
10,0.0
11,0.0
12,0.0
13,0.0
14,0.057955014174384967
15,-2.6510843464193964
16,-0.536999895209533
17,-2.336004752650979
18,0.18309693957680976
2,1, 1, 1, 0,21,30.00,45.00,Tuesday
7,-1.5499999999999999
8,0.0
9,0.0
10,0.0
11,0.0
12,0.0
13,0.0
14,0.010600219917422348
15,-3.016754671975538
16,-0.6119039497773429
17,-2.5528519501795019
18,0.16268975003737197
2,1, 1, 1, 0,21,45.00,60.00,Tuesday
7,-1.7
8,0.0
9,0.0
10,0.0
11,0.0
12,0.0
13,0.0
14,-0.04175195294354611
15,-3.492877928378013
16,-0.7038797699245833
17,-2.7923646947390354
18,0.13275261436087033
2,1, 1, 1, 0,22, 0.00,15.00,Tuesday
7,-1.5499999999999999
8,0.0
9,0.0
10,0.0
11,0.0
12,0.0
13,0.0
14,-0.016028558514655457
15,-2.976351920052284
16,-0.6572884460748583
17,-2.54653582698694
18,0.10695649269573406
2,1, 1, 1, 0,22,15.00,30.00,Tuesday
7,-1.4
8,0.0
9,0.0
10,0.0
11,0.0
12,0.0
13,0.0
14,0.0015661819979965412
15,-2.6265610693516865
16,-0.5974552810665159
17,-2.338696282082651
18,0.09347906885292186
2,1, 1, 1, 0,22,30.00,45.00,Tuesday
7,-1.25
8,0.0
9,0.0
10,0.0
11,0.0
12,0.0
13,0.0
14,0.015952203987876426
15,-2.397645028970548
16,-0.5465941911605796
17,-2.187149566676453
18,0.09104169879815685
2,1, 1, 1, 0,22,45.00,60.00,Tuesday
7,-1.1
8,0.0
9,0.0
10,0.0
11,0.0
12,0.0
13,0.0
14,0.033996791722865318
15,-2.099172663011033
16,-0.48723512424504636
17,-1.9786770476572997
18,0.09502979808895178
2,1, 1, 1, 0,23, 0.00,15.00,Tuesday
7,-1.25
8,0.0
9,0.0
10,0.0
11,0.0
12,0.0
13,0.0
14,0.002016803796185102
15,-2.4033614717442068
16,-0.568754447783931
17,-2.2584350429496569
18,0.0962426204820485
2,1, 1, 1, 0,23,15.00,30.00,Tuesday
7,-1.4
8,0.0
9,0.0
10,0.0
11,0.0
12,0.0
13,0.0
14,-0.029736484287837676
15,-2.7078773052020419
16,-0.6628774109763072
17,-2.5471711466217359
18,0.08880394806958388
2,1, 1, 1, 0,23,30.00,45.00,Tuesday
7,-1.5499999999999999
8,0.0
9,0.0
10,0.0
11,0.0
12,0.0
13,0.0
14,-0.06408924074618117
15,-3.012883641772837
16,-0.758084463308478
17,-2.835953520376961
18,0.07234371878796207
2,1, 1, 1, 0,23,45.00,60.00,Tuesday
7,-1.7
8,0.0
9,0.0
10,0.0
11,0.0
12,0.0
13,0.0
14,-0.10280471200573256
15,-3.3182741471740186
16,-0.8558215172075165
17,-3.1251421716547158
18,0.04881482003377715
2,1, 1, 1, 0,24, 0.00,15.00,Tuesday
7,-1.7
8,0.0
9,0.0
10,0.0
11,0.0
12,0.0
13,0.0
14,-0.12167047849911396
15,-3.3717036447668979
16,-0.8903530321321114
17,-3.1824278957474805
18,0.023362125476045334
2,1, 1, 1, 0,24,15.00,30.00,Tuesday
7,-1.7
8,0.0
9,0.0
10,0.0
11,0.0
12,0.0
13,0.0
14,-0.14369721736412875
15,-3.426109695600225
16,-0.9206244550072142
17,-3.2395027771491415
18,-0.0007114480872380719
2,1, 1, 1, 0,24,30.00,45.00,Tuesday
7,-1.7
8,0.0
9,0.0
10,0.0
11,0.0
12,0.0
13,0.0
14,-0.16529242183563537
15,-3.48037750602249
16,-0.9516643136551579
17,-3.29688617921272
18,-0.022841757207148359
2,1, 1, 1, 0,24,45.00,60.00,Tuesday
7,-1.7
8,0.0
9,0.0
10,0.0
11,0.0
12,0.0
13,0.0
14,-0.18640453425367363
15,-3.5346413277507149
16,-0.9822122168791339
17,-3.3541022766902985
18,-0.043624007565791888
End of Data
 Number of Records Written=        1152
