Program Version,EnergyPlus, Version 9.5.0-de239b2e5f, YMD=2022.11.01 22:08
1,5,Environment Title[],Latitude[deg],Longitude[deg],Time Zone[],Elevation[m]
2,8,Day of Simulation[],Month[],Day of Month[],DST Indicator[1=yes 0=no],Hour[],StartMinute[],EndMinute[],DayType
3,5,Cumulative Day of Simulation[],Month[],Day of Month[],DST Indicator[1=yes 0=no],DayType  ! When Daily Report Variables Requested
4,2,Cumulative Days of Simulation[],Month[]  ! When Monthly Report Variables Requested
5,1,Cumulative Days of Simulation[] ! When Run Period Report Variables Requested
6,1,Calendar Year of Simulation[] ! When Annual Report Variables Requested
7,1,Environment,Site Outdoor Air Drybulb Temperature [C] !TimeStep
8,1,ZONE ONE,Zone Windows Total Transmitted Solar Radiation Rate [W] !TimeStep
9,1,ZN001:WALL001,Surface Outside Face Sunlit Fraction [] !TimeStep
10,1,ZN001:WALL001,Surface Outside Face Incident Solar Radiation Rate per Area [W/m2] !TimeStep
11,1,ZN001:WALL001:WIN001,Surface Outside Face Sunlit Fraction [] !TimeStep
12,1,ZN001:WALL001:WIN001,Surface Outside Face Incident Solar Radiation Rate per Area [W/m2] !TimeStep
13,1,ZN001:WALL001:WIN001,Surface Window Transmitted Solar Radiation Rate [W] !TimeStep
14,1,ZN001:WALL001,Surface Inside Face Temperature [C] !TimeStep
15,1,ZN001:WALL001,Surface Outside Face Temperature [C] !TimeStep
16,1,ZN001:WALL001:WIN001,Surface Inside Face Temperature [C] !TimeStep
17,1,ZN001:WALL001:WIN001,Surface Outside Face Temperature [C] !TimeStep
18,1,ZONE ONE,Zone Mean Air Temperature [C] !TimeStep
End of Data Dictionary
1,RUN PERIOD 1,  41.98, -87.92,  -6.00, 201.00
2,1, 1, 1, 0, 1, 0.00,15.00,Tuesday
7,-4.324999999999999
8,0.0
9,0.0
10,0.0
11,0.0
12,0.0
13,0.0
14,4.9750216019880899
15,-5.913304583905068
16,2.812727280289664
17,-4.5410071784392589
18,5.4114705724950389
2,1, 1, 1, 0, 1,15.00,30.00,Tuesday
7,-6.949999999999999
8,0.0
9,0.0
10,0.0
11,0.0
12,0.0
13,0.0
14,4.794460773701895
15,-8.380892529726266
16,2.2052899174419737
17,-6.628635288101009
18,5.316393650578313
2,1, 1, 1, 0, 1,30.00,45.00,Tuesday
7,-9.575
8,0.0
9,0.0
10,0.0
11,0.0
12,0.0
13,0.0
14,4.594044622227231
15,-10.856490954188202
16,1.5924962887065136
17,-8.722737837394903
18,5.1892542827937
2,1, 1, 1, 0, 1,45.00,60.00,Tuesday
7,-12.2
8,0.0
9,0.0
10,0.0
11,0.0
12,0.0
13,0.0
14,4.377773256751847
15,-13.338699357758092
16,0.965197651145786
17,-10.824615985617357
18,5.039681973280751
2,1, 1, 1, 0, 2, 0.00,15.00,Tuesday
7,-12.075
8,0.0
9,0.0
10,0.0
11,0.0
12,0.0
13,0.0
14,4.312051671664382
15,-13.139826762610282
16,0.8977539145118385
17,-10.668992332605058
18,4.904749450061288
2,1, 1, 1, 0, 2,15.00,30.00,Tuesday
7,-11.95
8,0.0
9,0.0
10,0.0
11,0.0
12,0.0
13,0.0
14,4.232524606018778
15,-12.962707932480724
16,0.8663383291122955
17,-10.523554097317743
18,4.801653885807098
2,1, 1, 1, 0, 2,30.00,45.00,Tuesday
7,-11.825
8,0.0
9,0.0
10,0.0
11,0.0
12,0.0
13,0.0
14,4.1701301537361818
15,-12.784420199700988
16,0.8404196362715197
17,-10.377723152647946
18,4.725223278737826
2,1, 1, 1, 0, 2,45.00,60.00,Tuesday
7,-11.7
8,0.0
9,0.0
10,0.0
11,0.0
12,0.0
13,0.0
14,4.118971308768258
15,-12.60620767186415
16,0.8271783188100699
17,-10.229242489385968
18,4.664531043236132
2,1, 1, 1, 0, 3, 0.00,15.00,Tuesday
7,-11.549999999999999
8,0.0
9,0.0
10,0.0
11,0.0
12,0.0
13,0.0
14,4.069528183001209
15,-12.480339635656153
16,0.823928376492006
17,-10.093927440291396
18,4.610671266153086
2,1, 1, 1, 0, 3,15.00,30.00,Tuesday
7,-11.399999999999999
8,0.0
9,0.0
10,0.0
11,0.0
12,0.0
13,0.0
14,4.023260214725186
15,-12.355847872798704
16,0.8157373882670527
17,-9.939671241479232
18,4.559094573168686
2,1, 1, 1, 0, 3,30.00,45.00,Tuesday
7,-11.25
8,0.0
9,0.0
10,0.0
11,0.0
12,0.0
13,0.0
14,3.9779721197257
15,-12.232894498989664
16,0.8160918472012781
17,-9.803398471009018
18,4.508548068761785
2,1, 1, 1, 0, 3,45.00,60.00,Tuesday
7,-11.1
8,0.0
9,0.0
10,0.0
11,0.0
12,0.0
13,0.0
14,3.9330991374488635
15,-12.111530929996596
16,0.8102804663060397
17,-9.649617849574043
18,4.45878708544736
2,1, 1, 1, 0, 4, 0.00,15.00,Tuesday
7,-11.1
8,0.0
9,0.0
10,0.0
11,0.0
12,0.0
13,0.0
14,3.8845929642194316
15,-12.08281247472662
16,0.7601677047184694
17,-9.683240182126383
18,4.408983923217725
2,1, 1, 1, 0, 4,15.00,30.00,Tuesday
7,-11.1
8,0.0
9,0.0
10,0.0
11,0.0
12,0.0
13,0.0
14,3.836464132824052
15,-12.05520047743611
16,0.713013407239032
17,-9.716172198874006
18,4.358800466015575
2,1, 1, 1, 0, 4,30.00,45.00,Tuesday
7,-11.1
8,0.0
9,0.0
10,0.0
11,0.0
12,0.0
13,0.0
14,3.7881722343680939
15,-12.029136118943786
16,0.6662235692750755
17,-9.748225960866023
18,4.308334193509217
2,1, 1, 1, 0, 4,45.00,60.00,Tuesday
7,-11.1
8,0.0
9,0.0
10,0.0
11,0.0
12,0.0
13,0.0
14,3.7398115832879417
15,-12.00448818203809
16,0.6196222290992637
17,-9.779321494016699
18,4.2577827355524209
2,1, 1, 1, 0, 5, 0.00,15.00,Tuesday
7,-10.975
8,0.0
9,0.0
10,0.0
11,0.0
12,0.0
13,0.0
14,3.6970901887013305
15,-11.88247465344035
16,0.6092639174892156
17,-9.692547645893342
18,4.208328034148768
2,1, 1, 1, 0, 5,15.00,30.00,Tuesday
7,-10.85
8,0.0
9,0.0
10,0.0
11,0.0
12,0.0
13,0.0
14,3.6545759393864198
15,-11.760536928178752
16,0.5968483805368123
17,-9.597797280475902
18,4.160453204896929
2,1, 1, 1, 0, 5,30.00,45.00,Tuesday
7,-10.725
8,0.0
9,0.0
10,0.0
11,0.0
12,0.0
13,0.0
14,3.6130713690520945
15,-11.638577109359204
16,0.5847071522200622
17,-9.502203430157067
18,4.1139399938105349
2,1, 1, 1, 0, 5,45.00,60.00,Tuesday
7,-10.6
8,0.0
9,0.0
10,0.0
11,0.0
12,0.0
13,0.0
14,3.5724112283160185
15,-11.516626873721416
16,0.5733538988048395
17,-9.406376073328659
18,4.068417806231616
2,1, 1, 1, 0, 6, 0.00,15.00,Tuesday
7,-10.6
8,0.0
9,0.0
10,0.0
11,0.0
12,0.0
13,0.0
14,3.5246921307913374
15,-11.51756890329865
16,0.5328748472708185
17,-9.407105347629113
18,4.0222921316982849
2,1, 1, 1, 0, 6,15.00,30.00,Tuesday
7,-10.6
8,0.0
9,0.0
10,0.0
11,0.0
12,0.0
13,0.0
14,3.477602558761286
15,-11.518450121848872
16,0.4934053150546447
17,-9.414568144236
18,3.9748472491160955
2,1, 1, 1, 0, 6,30.00,45.00,Tuesday
7,-10.6
8,0.0
9,0.0
10,0.0
11,0.0
12,0.0
13,0.0
14,3.4299754093713346
15,-11.519373579268735
16,0.45411959036300689
17,-9.422628520316096
18,3.9263539085764966
2,1, 1, 1, 0, 6,45.00,60.00,Tuesday
7,-10.6
8,0.0
9,0.0
10,0.0
11,0.0
12,0.0
13,0.0
14,3.382028410038904
15,-11.520295356170918
16,0.41446792012186509
17,-9.430838987268772
18,3.8773226210402575
2,1, 1, 1, 0, 7, 0.00,15.00,Tuesday
7,-10.6
8,0.0
9,0.0
10,0.0
11,0.0
12,0.0
13,0.0
14,3.3361037909567137
15,-11.496573429068978
16,0.3690334855846231
17,-9.45706956553829
18,3.828432495257374
2,1, 1, 1, 0, 7,15.00,30.00,Tuesday
7,-10.6
8,0.0
9,0.0
10,0.0
11,0.0
12,0.0
13,0.0
14,3.2900488507896137
15,-11.474081386636217
16,0.32538286157813448
17,-9.48342719356333
18,3.7800367034067459
2,1, 1, 1, 0, 7,30.00,45.00,Tuesday
7,-10.6
8,0.0
9,0.0
10,0.0
11,0.0
12,0.0
13,0.0
14,3.244280251420785
15,-11.452732576769524
16,0.282142421058154
17,-9.509074081242148
18,3.73211924831164
2,1, 1, 1, 0, 7,45.00,60.00,Tuesday
7,-10.6
8,0.0
9,0.0
10,0.0
11,0.0
12,0.0
13,0.0
14,3.1988070764541844
15,-11.432459317521447
16,0.23937429643757469
17,-9.533882930118466
18,3.6845653851822406
2,1, 1, 1, 0, 8, 0.00,15.00,Tuesday
7,-10.45
8,0.0
9,0.0
10,0.0
11,0.0
12,0.0
13,0.0
14,3.152684650566185
15,-11.383575344034713
16,0.21996820523111183
17,-9.484350769038088
18,3.6370264872031008
2,1, 1, 1, 0, 8,15.00,30.00,Tuesday
7,-10.3
8,140.45304376228797
9,1.0
10,22.819555959623899
11,1.0
12,22.819555959623899
13,140.45304376228797
14,3.2238809487647854
15,-9.710133718796943
16,0.5412123975276018
17,-9.142800549361596
18,3.606943987359275
2,1, 1, 1, 0, 8,30.00,45.00,Tuesday
7,-10.15
8,689.7471798740851
9,1.0
10,109.75755355442667
11,1.0
12,109.75755355442667
13,689.7471798740851
14,3.614759018962846
15,-3.342091093525233
16,1.8960546304095943
17,-7.966309042136572
18,3.642776560850049
2,1, 1, 1, 0, 8,45.00,60.00,Tuesday
7,-10.0
8,1254.638834549014
9,1.0
10,195.8764694434918
11,1.0
12,195.8764694434918
13,1254.638834549014
14,4.115689557942444
15,3.146558728061821
16,3.3980987262519308
17,-6.779716651207366
18,3.7511608904944508
2,1, 1, 1, 0, 9, 0.00,15.00,Tuesday
7,-9.725
8,1818.0037541400657
9,1.0
10,278.97248314719988
11,1.0
12,278.97248314719988
13,1818.0037541400657
14,4.515909671404955
15,8.319538102545824
16,4.914779600238944
17,-5.726458183781006
18,3.9113710614119086
2,1, 1, 1, 0, 9,15.00,30.00,Tuesday
7,-9.45
8,2412.311165639872
9,1.0
10,364.91995730569456
11,1.0
12,364.91995730569456
13,2412.311165639872
14,4.942184614099025
15,13.398631874726397
16,6.371532483334022
17,-4.66848715752792
18,4.115235114376293
2,1, 1, 1, 0, 9,30.00,45.00,Tuesday
7,-9.175
8,2806.134641439913
9,1.0
10,420.35879993239237
11,1.0
12,420.35879993239237
13,2806.134641439913
14,5.241269418809985
15,16.156467042634917
16,7.349283372462139
17,-4.018282156021883
18,4.343129418083811
2,1, 1, 1, 0, 9,45.00,60.00,Tuesday
7,-8.9
8,3215.191524500894
9,1.0
10,478.00138373643099
11,1.0
12,478.00138373643099
13,3215.191524500894
14,5.592454236049426
15,19.151343051549536
16,8.323188702670507
17,-3.345474767776409
18,4.584729144619036
2,1, 1, 1, 0,10, 0.00,15.00,Tuesday
7,-8.350000000000002
8,3633.1287848911385
9,1.0
10,536.9185644770597
11,1.0
12,536.9185644770597
13,3633.1287848911385
14,5.889059778323537
15,20.268577727446727
16,9.325192968236138
17,-2.6385087935142339
18,4.840160154171614
2,1, 1, 1, 0,10,15.00,30.00,Tuesday
7,-7.800000000000001
8,4065.6961262653856
9,1.0
10,598.0969199229219
11,1.0
12,598.0969199229219
13,4065.6961262653856
14,6.213485839015524
15,21.521312802001796
16,10.343282730092256
17,-1.9344724708464583
18,5.117439418618116
2,1, 1, 1, 0,10,30.00,45.00,Tuesday
7,-7.25
8,4350.04535461425
9,1.0
10,637.6133352894237
11,1.0
12,637.6133352894237
13,4350.04535461425
14,6.464099828669736
15,21.5808196872601
16,11.075356107278424
17,-1.4430333253554864
18,5.4059624603860378
2,1, 1, 1, 0,10,45.00,60.00,Tuesday
7,-6.7
8,4630.293764991705
9,1.0
10,676.6412284283772
11,1.0
12,676.6412284283772
13,4630.293764991705
14,6.738575201738859
15,21.740872478475894
16,11.781488609985616
17,-0.9549629922451004
18,5.6939753915792379
2,1, 1, 1, 0,11, 0.00,15.00,Tuesday
7,-6.275
8,4905.493947098264
9,1.0
10,715.0112779846514
11,1.0
12,715.0112779846514
13,4905.493947098264
14,7.089988644875462
15,23.83875912990886
16,12.529086767572949
17,-0.2372065000998873
18,5.982764306752283
2,1, 1, 1, 0,11,15.00,30.00,Tuesday
7,-5.85
8,5174.22833168585
9,1.0
10,752.5077794605232
11,1.0
12,752.5077794605232
13,5174.22833168585
14,7.43079478265271
15,25.774012660238698
16,13.269493605502817
17,0.4604686962109099
18,6.276024225410741
2,1, 1, 1, 0,11,30.00,45.00,Tuesday
7,-5.425
8,5095.298765846482
9,1.0
10,742.5988714321785
11,1.0
12,742.5988714321785
13,5095.298765846482
14,7.634337167911783
15,25.62598614633888
16,13.420627412526756
17,0.7504481780543983
18,6.5557573755470719
2,1, 1, 1, 0,11,45.00,60.00,Tuesday
7,-5.0
8,4982.016874924456
9,1.0
10,727.8169025450712
11,1.0
12,727.8169025450712
13,4982.016874924456
14,7.833132805502037
15,25.39706654997066
16,13.484062225649155
17,1.0083831437787013
18,6.808643364816109
2,1, 1, 1, 0,12, 0.00,15.00,Tuesday
7,-4.575
8,4786.8452388162809
9,1.0
10,700.3759009170325
11,1.0
12,700.3759009170325
13,4786.8452388162809
14,7.973760068273535
15,24.654684580369744
16,13.392922130692455
17,1.2058957182086375
18,7.027251468849097
2,1, 1, 1, 0,12,15.00,30.00,Tuesday
7,-4.15
8,4641.7592820720569
9,1.0
10,681.6705029034473
11,1.0
12,681.6705029034473
13,4641.7592820720569
14,8.135096128881063
15,24.324458276653809
16,13.38628019982741
17,1.4728672695882779
18,7.219243067527136
2,1, 1, 1, 0,12,30.00,45.00,Tuesday
7,-3.7249999999999998
8,4074.5948810428319
9,1.0
10,602.01865277251
11,1.0
12,602.01865277251
13,4074.5948810428319
14,8.057454694253123
15,21.29623458475985
16,12.617902701458434
17,1.2470179088679175
18,7.362626841181248
2,1, 1, 1, 0,12,45.00,60.00,Tuesday
7,-3.3
8,3327.4639631373318
9,1.0
10,493.55004396206007
11,1.0
12,493.55004396206007
13,3327.4639631373318
14,7.8660519628603169
15,17.117978338070498
16,11.387262962681462
17,0.7638107631860294
18,7.432529786468204
2,1, 1, 1, 0,13, 0.00,15.00,Tuesday
7,-3.0249999999999996
8,2746.5937649725349
9,1.0
10,412.335026418112
11,1.0
12,412.335026418112
13,2746.5937649725349
14,7.732583407266681
15,14.273946860192
16,10.407780759579282
17,0.4345850964372744
18,7.443455079095527
2,1, 1, 1, 0,13,15.00,30.00,Tuesday
7,-2.75
8,2010.8842643820174
9,1.0
10,305.94037763660148
11,1.0
12,305.94037763660148
13,2010.8842643820174
14,7.433724046231135
15,10.100896536384198
16,9.05004065090776
17,-0.12751612811700853
18,7.40435006419137
2,1, 1, 1, 0,13,30.00,45.00,Tuesday
7,-2.475
8,1835.4820591740814
9,1.0
10,281.0763483922329
11,1.0
12,281.0763483922329
13,1835.4820591740814
14,7.406628376209572
15,9.588114406742486
16,8.727084693508914
17,-0.015827601045202756
18,7.3518442301974009
2,1, 1, 1, 0,13,45.00,60.00,Tuesday
7,-2.2
8,1663.7353049668812
9,1.0
10,256.7721209415886
11,1.0
12,256.7721209415886
13,1663.7353049668812
14,7.37437741687758
15,8.98173744112346
16,8.474368182991043
17,0.1202193288735316
18,7.306994115261127
2,1, 1, 1, 0,14, 0.00,15.00,Tuesday
7,-1.9250000000000003
8,1358.85929826377
9,1.0
10,210.73276284570657
11,1.0
12,210.73276284570657
13,1358.85929826377
14,7.240274425482905
15,7.434159554128365
16,7.8911173421463449
17,0.030851512765480039
18,7.266535728756734
2,1, 1, 1, 0,14,15.00,30.00,Tuesday
7,-1.6500000000000002
8,1206.7111539065473
9,1.0
10,189.38488290342594
11,1.0
12,189.38488290342594
13,1206.7111539065473
14,7.207321147999276
15,7.029346425567828
16,7.620615434643696
17,0.1437552979633665
18,7.230596816074133
2,1, 1, 1, 0,14,30.00,45.00,Tuesday
7,-1.375
8,1150.9256970846882
9,1.0
10,179.3940297802914
11,1.0
12,179.3940297802914
13,1150.9256970846882
14,7.2019106056282589
15,7.152283631954998
16,7.559051420327307
17,0.3729898626399972
18,7.201059962282952
2,1, 1, 1, 0,14,45.00,60.00,Tuesday
7,-1.1
8,1094.4471046775948
9,1.0
10,169.43349014176136
11,1.0
12,169.43349014176136
13,1094.4471046775948
14,7.193442360309436
15,7.251016713731678
16,7.491992023466423
17,0.6004646648234484
18,7.177569535704873
2,1, 1, 1, 0,15, 0.00,15.00,Tuesday
7,-1.1
8,1151.8388760802598
9,1.0
10,178.15692317953907
11,1.0
12,178.15692317953907
13,1151.8388760802598
14,7.2532847013089569
15,8.069475346188442
16,7.635054712611577
17,0.7381585904539634
18,7.163076725136028
2,1, 1, 1, 0,15,15.00,30.00,Tuesday
7,-1.1
8,1082.0264420754789
9,1.0
10,166.40516310952945
11,1.0
12,166.40516310952945
13,1082.0264420754789
14,7.2040317304049819
15,7.705672965576271
16,7.48090944152699
17,0.6763897500463827
18,7.152227316565564
2,1, 1, 1, 0,15,30.00,45.00,Tuesday
7,-1.1
8,912.1459644490223
9,1.0
10,140.8967369711617
11,1.0
12,140.8967369711617
13,912.1459644490223
14,7.091104323168043
15,6.49875383227343
16,7.049235492212574
17,0.4381847386143818
18,7.134841122648398
2,1, 1, 1, 0,15,45.00,60.00,Tuesday
7,-1.1
8,750.4575669140044
9,1.0
10,116.57355796743004
11,1.0
12,116.57355796743004
13,750.4575669140044
14,6.979227017218114
15,5.290286771845418
16,6.632830568330462
17,0.1888143764593906
18,7.1011054707220009
2,1, 1, 1, 0,16, 0.00,15.00,Tuesday
7,-1.1
8,595.481169187192
9,1.0
10,93.14939272689483
11,1.0
12,93.14939272689483
13,595.481169187192
14,6.881243623964669
15,4.239639269385697
16,6.262460521228093
17,0.02730577252890498
18,7.049092755304897
2,1, 1, 1, 0,16,15.00,30.00,Tuesday
7,-1.1
8,369.58982362262148
9,1.0
10,57.94047897402063
11,1.0
12,57.94047897402063
13,369.58982362262148
14,6.694738834569727
15,2.1147437376708826
16,5.7056135919726789
17,-0.2964644142733164
18,6.972108688803849
2,1, 1, 1, 0,16,30.00,45.00,Tuesday
7,-1.1
8,286.4966636340112
9,1.0
10,45.38251793443488
11,1.0
12,45.38251793443488
13,286.4966636340112
14,6.621882950006111
15,1.5034048558726876
16,5.47012399039113
17,-0.36660249934539027
18,6.8799312518976178
2,1, 1, 1, 0,16,45.00,60.00,Tuesday
7,-1.1
8,199.96214020041234
9,1.0
10,32.02625108222755
11,1.0
12,32.02625108222755
13,199.96214020041234
14,6.510483107134396
15,0.6391566302163971
16,5.2438001048629989
17,-0.44336601325653648
18,6.786874130621273
2,1, 1, 1, 0,17, 0.00,15.00,Tuesday
7,-1.1
8,109.66923701289156
9,1.0
10,17.762198626050539
11,1.0
12,17.762198626050539
13,109.66923701289156
14,6.373562780605341
15,-0.6133193809840429
16,4.960800582315301
17,-0.6361298880627828
18,6.6941246575226
2,1, 1, 1, 0,17,15.00,30.00,Tuesday
7,-1.1
8,0.0
9,0.0
10,0.0
11,0.0
12,0.0
13,0.0
14,6.1876215516613819
15,-2.451114463215943
16,4.604857073387279
17,-0.9319858258949125
18,6.59080760431248
2,1, 1, 1, 0,17,30.00,45.00,Tuesday
7,-1.1
8,0.0
9,0.0
10,0.0
11,0.0
12,0.0
13,0.0
14,6.132635366633237
15,-2.58751168416404
16,4.516225774023155
17,-0.9434788944629986
18,6.490615914732218
2,1, 1, 1, 0,17,45.00,60.00,Tuesday
7,-1.1
8,0.0
9,0.0
10,0.0
11,0.0
12,0.0
13,0.0
14,6.062690934838493
15,-2.7794216311465025
16,4.4679335861872009
17,-0.9394076014691564
18,6.40641765146995
2,1, 1, 1, 0,18, 0.00,15.00,Tuesday
7,-1.25
8,0.0
9,0.0
10,0.0
11,0.0
12,0.0
13,0.0
14,6.004219670653393
15,-2.9271341365314518
16,4.379942500628204
17,-1.0773919735172513
18,6.339035844367425
2,1, 1, 1, 0,18,15.00,30.00,Tuesday
7,-1.4
8,0.0
9,0.0
10,0.0
11,0.0
12,0.0
13,0.0
14,5.950943753254164
15,-3.0795419395649139
16,4.306044210426535
17,-1.2073493526173707
18,6.283502318961044
2,1, 1, 1, 0,18,30.00,45.00,Tuesday
7,-1.5499999999999999
8,0.0
9,0.0
10,0.0
11,0.0
12,0.0
13,0.0
14,5.90188998045821
15,-3.2314680069585859
16,4.23645338620463
17,-1.3364046436519744
18,6.234598757467149
2,1, 1, 1, 0,18,45.00,60.00,Tuesday
7,-1.7
8,0.0
9,0.0
10,0.0
11,0.0
12,0.0
13,0.0
14,5.854908320033137
15,-3.3835627305347897
16,4.169753944899014
17,-1.4647448386642737
18,6.188960572597286
2,1, 1, 1, 0,19, 0.00,15.00,Tuesday
7,-1.825
8,0.0
9,0.0
10,0.0
11,0.0
12,0.0
13,0.0
14,5.833240007623416
15,-3.234840025060116
16,4.1034005365247598
17,-1.5920608888307016
18,6.1484233564687289
2,1, 1, 1, 0,19,15.00,30.00,Tuesday
7,-1.9500000000000002
8,0.0
9,0.0
10,0.0
11,0.0
12,0.0
13,0.0
14,5.810574101522765
15,-3.1676191991304947
16,4.047702892346308
17,-1.7158958948230634
18,6.1147400251934089
2,1, 1, 1, 0,19,30.00,45.00,Tuesday
7,-2.075
8,0.0
9,0.0
10,0.0
11,0.0
12,0.0
13,0.0
14,5.783306640657002
15,-3.2412936622287336
16,4.000872348336088
17,-1.8251175155613738
18,6.086430276839502
2,1, 1, 1, 0,19,45.00,60.00,Tuesday
7,-2.2
8,0.0
9,0.0
10,0.0
11,0.0
12,0.0
13,0.0
14,5.759028673694357
15,-3.2186942877091848
16,3.9493261434720354
17,-1.9477938399483606
18,6.060454261667487
2,1, 1, 1, 0,20, 0.00,15.00,Tuesday
7,-1.9250000000000003
8,0.0
9,0.0
10,0.0
11,0.0
12,0.0
13,0.0
14,5.751538625457046
15,-2.917427713720755
16,3.9924549518211736
17,-1.7383137519262278
18,6.037288571866554
2,1, 1, 1, 0,20,15.00,30.00,Tuesday
7,-1.6500000000000002
8,0.0
9,0.0
10,0.0
11,0.0
12,0.0
13,0.0
14,5.743615451223034
15,-2.619197539030372
16,4.035092284935388
17,-1.5178583556504464
18,6.017383393867259
2,1, 1, 1, 0,20,30.00,45.00,Tuesday
7,-1.375
8,0.0
9,0.0
10,0.0
11,0.0
12,0.0
13,0.0
14,5.737450996973996
15,-2.3222146102007508
16,4.079300049815004
17,-1.2945079629679413
18,6.000293361293495
2,1, 1, 1, 0,20,45.00,60.00,Tuesday
7,-1.1
8,0.0
9,0.0
10,0.0
11,0.0
12,0.0
13,0.0
14,5.732829463836273
15,-2.0265028524806016
16,4.125577752947777
17,-1.0687806771670694
18,5.985315376146812
2,1, 1, 1, 0,21, 0.00,15.00,Tuesday
7,-1.25
8,0.0
9,0.0
10,0.0
11,0.0
12,0.0
13,0.0
14,5.685944772716501
15,-2.3079806805306197
16,4.082158292611439
17,-1.1648660441829293
18,5.965689813689015
2,1, 1, 1, 0,21,15.00,30.00,Tuesday
7,-1.4
8,0.0
9,0.0
10,0.0
11,0.0
12,0.0
13,0.0
14,5.6405558856229229
15,-2.5247070170370549
16,4.027658288546149
17,-1.2740717413179823
18,5.9367697549217379
2,1, 1, 1, 0,21,30.00,45.00,Tuesday
7,-1.5499999999999999
8,0.0
9,0.0
10,0.0
11,0.0
12,0.0
13,0.0
14,5.5816257480972919
15,-2.8695042922154316
16,3.9743344399699938
17,-1.3712095381501968
18,5.89766940240359
2,1, 1, 1, 0,21,45.00,60.00,Tuesday
7,-1.7
8,0.0
9,0.0
10,0.0
11,0.0
12,0.0
13,0.0
14,5.517424204512656
15,-3.321955177608623
16,3.9212721876210709
17,-1.4470535363122963
18,5.850591008197502
2,1, 1, 1, 0,22, 0.00,15.00,Tuesday
7,-1.5499999999999999
8,0.0
9,0.0
10,0.0
11,0.0
12,0.0
13,0.0
14,5.522132300843749
15,-2.8337840439528709
16,3.899426955317381
17,-1.387602819497829
18,5.809118568791573
2,1, 1, 1, 0,22,15.00,30.00,Tuesday
7,-1.4
8,0.0
9,0.0
10,0.0
11,0.0
12,0.0
13,0.0
14,5.517058471283546
15,-2.5032335118923965
16,3.911442303330091
17,-1.2949748755520432
18,5.780633494923722
2,1, 1, 1, 0,22,30.00,45.00,Tuesday
7,-1.25
8,0.0
9,0.0
10,0.0
11,0.0
12,0.0
13,0.0
14,5.510724312086346
15,-2.282950507009454
16,3.928679130113096
17,-1.1882406636062229
18,5.762910640538185
2,1, 1, 1, 0,22,45.00,60.00,Tuesday
7,-1.1
8,0.0
9,0.0
10,0.0
11,0.0
12,0.0
13,0.0
14,5.508385981188332
15,-2.000092826477174
16,3.948245196015648
17,-1.079079924056714
18,5.750723119540316
2,1, 1, 1, 0,23, 0.00,15.00,Tuesday
7,-1.25
8,0.0
9,0.0
10,0.0
11,0.0
12,0.0
13,0.0
14,5.461105045599122
15,-2.3034890227268667
16,3.8584852138080807
17,-1.3529204265804538
18,5.733552250153292
2,1, 1, 1, 0,23,15.00,30.00,Tuesday
7,-1.4
8,0.0
9,0.0
10,0.0
11,0.0
12,0.0
13,0.0
14,5.416699827927378
15,-2.608077461606234
16,3.756469073439291
17,-1.64676440224639
18,5.706190129700602
2,1, 1, 1, 0,23,30.00,45.00,Tuesday
7,-1.5499999999999999
8,0.0
9,0.0
10,0.0
11,0.0
12,0.0
13,0.0
14,5.367679704433103
15,-2.913331132000338
16,3.6533194263976158
17,-1.9403364036854783
18,5.669722765898931
2,1, 1, 1, 0,23,45.00,60.00,Tuesday
7,-1.7
8,0.0
9,0.0
10,0.0
11,0.0
12,0.0
13,0.0
14,5.3147808258883
15,-3.2189267724481458
16,3.5467755750652829
17,-2.233283706664338
18,5.627121207508667
2,1, 1, 1, 0,24, 0.00,15.00,Tuesday
7,-1.7
8,0.0
9,0.0
10,0.0
11,0.0
12,0.0
13,0.0
14,5.279095656946156
15,-3.2729405007703966
16,3.49871159934645
17,-2.295864837552813
18,5.584065756419024
2,1, 1, 1, 0,24,15.00,30.00,Tuesday
7,-1.7
8,0.0
9,0.0
10,0.0
11,0.0
12,0.0
13,0.0
14,5.239281113628293
15,-3.3276259764521827
16,3.4549264275194675
17,-2.3567549389515536
18,5.543403041120749
2,1, 1, 1, 0,24,30.00,45.00,Tuesday
7,-1.7
8,0.0
9,0.0
10,0.0
11,0.0
12,0.0
13,0.0
14,5.201583829431518
15,-3.3821235328559235
16,3.4103620872297144
17,-2.417805465308277
18,5.505125325931287
2,1, 1, 1, 0,24,45.00,60.00,Tuesday
7,-1.7
8,0.0
9,0.0
10,0.0
11,0.0
12,0.0
13,0.0
14,5.164538818188473
15,-3.436671701126133
16,3.3669531716294616
17,-2.478491380838591
18,5.468303529483623
End of Data
 Number of Records Written=        1152
