Program Version,EnergyPlus, Version 9.5.0-de239b2e5f, YMD=2022.11.01 22:08
1,5,Environment Title[],Latitude[deg],Longitude[deg],Time Zone[],Elevation[m]
2,8,Day of Simulation[],Month[],Day of Month[],DST Indicator[1=yes 0=no],Hour[],StartMinute[],EndMinute[],DayType
3,5,Cumulative Day of Simulation[],Month[],Day of Month[],DST Indicator[1=yes 0=no],DayType  ! When Daily Report Variables Requested
4,2,Cumulative Days of Simulation[],Month[]  ! When Monthly Report Variables Requested
5,1,Cumulative Days of Simulation[] ! When Run Period Report Variables Requested
6,1,Calendar Year of Simulation[] ! When Annual Report Variables Requested
7,1,Environment,Site Outdoor Air Drybulb Temperature [C] !TimeStep
8,1,ZONE ONE,Zone Windows Total Transmitted Solar Radiation Rate [W] !TimeStep
9,1,ZN001:WALL001,Surface Outside Face Sunlit Fraction [] !TimeStep
10,1,ZN001:WALL001,Surface Outside Face Incident Solar Radiation Rate per Area [W/m2] !TimeStep
11,1,ZN001:WALL001:WIN001,Surface Outside Face Sunlit Fraction [] !TimeStep
12,1,ZN001:WALL001:WIN001,Surface Outside Face Incident Solar Radiation Rate per Area [W/m2] !TimeStep
13,1,ZN001:WALL001:WIN001,Surface Window Transmitted Solar Radiation Rate [W] !TimeStep
14,1,ZN001:WALL001,Surface Inside Face Temperature [C] !TimeStep
15,1,ZN001:WALL001,Surface Outside Face Temperature [C] !TimeStep
16,1,ZN001:WALL001:WIN001,Surface Inside Face Temperature [C] !TimeStep
17,1,ZN001:WALL001:WIN001,Surface Outside Face Temperature [C] !TimeStep
18,1,ZONE ONE,Zone Mean Air Temperature [C] !TimeStep
End of Data Dictionary
1,RUN PERIOD 1,  41.98, -87.92,  -6.00, 201.00
2,1, 1, 1, 0, 1, 0.00,15.00,Tuesday
7,-4.324999999999999
8,0.0
9,0.0
10,0.0
11,0.0
12,0.0
13,0.0
14,6.820764363692659
15,-5.879736558026509
16,4.341236499409035
17,-4.22915708813639
18,7.303482457551958
2,1, 1, 1, 0, 1,15.00,30.00,Tuesday
7,-6.949999999999999
8,0.0
9,0.0
10,0.0
11,0.0
12,0.0
13,0.0
14,6.637132147341786
15,-8.347005287793852
16,3.7379752389214788
17,-6.3166993491259408
18,7.202459104062575
2,1, 1, 1, 0, 1,30.00,45.00,Tuesday
7,-9.575
8,0.0
9,0.0
10,0.0
11,0.0
12,0.0
13,0.0
14,6.433414300032846
15,-10.822225660834207
16,3.1283025773358306
17,-8.410490726381227
18,7.069860554740004
2,1, 1, 1, 0, 1,45.00,60.00,Tuesday
7,-12.2
8,0.0
9,0.0
10,0.0
11,0.0
12,0.0
13,0.0
14,6.213842563667908
15,-13.304074461048117
16,2.503661512503413
17,-10.511878585691648
18,6.915475669751275
2,1, 1, 1, 0, 2, 0.00,15.00,Tuesday
7,-12.075
8,0.0
9,0.0
10,0.0
11,0.0
12,0.0
13,0.0
14,6.1423309716575329
15,-13.104933954348616
16,2.432355546193264
17,-10.352362241427216
18,6.776337720590014
2,1, 1, 1, 0, 2,15.00,30.00,Tuesday
7,-11.95
8,0.0
9,0.0
10,0.0
11,0.0
12,0.0
13,0.0
14,6.057506697374488
15,-12.927928403881794
16,2.395530691691647
17,-10.208316253930434
18,6.669209681589009
2,1, 1, 1, 0, 2,30.00,45.00,Tuesday
7,-11.825
8,0.0
9,0.0
10,0.0
11,0.0
12,0.0
13,0.0
14,5.989896918857316
15,-12.74976934126426
16,2.3644827778260266
17,-10.063843150489675
18,6.58846972966576
2,1, 1, 1, 0, 2,45.00,60.00,Tuesday
7,-11.7
8,0.0
9,0.0
10,0.0
11,0.0
12,0.0
13,0.0
14,5.933423026336587
15,-12.57169404375628
16,2.3461322756799065
17,-9.916731836520626
18,6.523013497653254
2,1, 1, 1, 0, 3, 0.00,15.00,Tuesday
7,-11.549999999999999
8,0.0
9,0.0
10,0.0
11,0.0
12,0.0
13,0.0
14,5.878606852702456
15,-12.445000285364462
16,2.335455417157391
17,-9.768174527343377
18,6.463949596192659
2,1, 1, 1, 0, 3,15.00,30.00,Tuesday
7,-11.399999999999999
8,0.0
9,0.0
10,0.0
11,0.0
12,0.0
13,0.0
14,5.826958366288366
15,-12.319649079728427
16,2.3303111687981756
17,-9.629010709520799
18,6.407038141640672
2,1, 1, 1, 0, 3,30.00,45.00,Tuesday
7,-11.25
8,0.0
9,0.0
10,0.0
11,0.0
12,0.0
13,0.0
14,5.776055642407135
15,-12.195786597704207
16,2.3197706791889916
17,-9.470482746547987
18,6.350986271317885
2,1, 1, 1, 0, 3,45.00,60.00,Tuesday
7,-11.1
8,0.0
9,0.0
10,0.0
11,0.0
12,0.0
13,0.0
14,5.72573373738094
15,-12.073474485656244
16,2.3168306220853767
17,-9.330453985188399
18,6.295750879380744
2,1, 1, 1, 0, 4, 0.00,15.00,Tuesday
7,-11.1
8,0.0
9,0.0
10,0.0
11,0.0
12,0.0
13,0.0
14,5.671567068131546
15,-12.04595155548443
16,2.25738611979898
17,-9.362111960888
18,6.240386167716886
2,1, 1, 1, 0, 4,15.00,30.00,Tuesday
7,-11.1
8,0.0
9,0.0
10,0.0
11,0.0
12,0.0
13,0.0
14,5.617826915398525
15,-12.019489743179042
16,2.20382550093575
17,-9.40027422929495
18,6.184536012098299
2,1, 1, 1, 0, 4,30.00,45.00,Tuesday
7,-11.1
8,0.0
9,0.0
10,0.0
11,0.0
12,0.0
13,0.0
14,5.563886870005534
15,-11.994519096989344
16,2.1510291406796115
17,-9.438029850945896
18,6.128350235224299
2,1, 1, 1, 0, 4,45.00,60.00,Tuesday
7,-11.1
8,0.0
9,0.0
10,0.0
11,0.0
12,0.0
13,0.0
14,5.509870738601038
15,-11.970909692933704
16,2.0984601665371658
17,-9.474763279341858
18,6.072072734570878
2,1, 1, 1, 0, 5, 0.00,15.00,Tuesday
7,-10.975
8,0.0
9,0.0
10,0.0
11,0.0
12,0.0
13,0.0
14,5.461471068680242
15,-11.849030991984164
16,2.083056117229603
17,-9.389100317586156
18,6.0169392257373979
2,1, 1, 1, 0, 5,15.00,30.00,Tuesday
7,-10.85
8,0.0
9,0.0
10,0.0
11,0.0
12,0.0
13,0.0
14,5.413301065781967
15,-11.727216955665064
16,2.0654463330286605
17,-9.295353265998756
18,5.963435356766917
2,1, 1, 1, 0, 5,30.00,45.00,Tuesday
7,-10.725
8,0.0
9,0.0
10,0.0
11,0.0
12,0.0
13,0.0
14,5.3661786652909468
15,-11.60537990466117
16,2.048132956270365
17,-9.20075525569689
18,5.911321689422169
2,1, 1, 1, 0, 5,45.00,60.00,Tuesday
7,-10.6
8,0.0
9,0.0
10,0.0
11,0.0
12,0.0
13,0.0
14,5.319924764239445
15,-11.483552255899815
16,2.0316371477539976
17,-9.10591861357409
18,5.8602120904130079
2,1, 1, 1, 0, 6, 0.00,15.00,Tuesday
7,-10.6
8,0.0
9,0.0
10,0.0
11,0.0
12,0.0
13,0.0
14,5.266771825080598
15,-11.484584232990521
16,1.9863794447492183
17,-9.10773924854874
18,5.808496845428396
2,1, 1, 1, 0, 6,15.00,30.00,Tuesday
7,-10.6
8,0.0
9,0.0
10,0.0
11,0.0
12,0.0
13,0.0
14,5.2142576476371709
15,-11.4855682571463
16,1.9421983786371584
17,-9.11613652135361
18,5.755472594260274
2,1, 1, 1, 0, 6,30.00,45.00,Tuesday
7,-10.6
8,0.0
9,0.0
10,0.0
11,0.0
12,0.0
13,0.0
14,5.161212346324794
15,-11.486594190352383
16,1.8982055818214008
17,-9.125107666055328
18,5.701429510529218
2,1, 1, 1, 0, 6,45.00,60.00,Tuesday
7,-10.6
8,0.0
9,0.0
10,0.0
11,0.0
12,0.0
13,0.0
14,5.107866996211649
15,-11.487617734881943
16,1.8538582920843965
17,-9.134222954986
18,5.646886862060878
2,1, 1, 1, 0, 7, 0.00,15.00,Tuesday
7,-10.6
8,0.0
9,0.0
10,0.0
11,0.0
12,0.0
13,0.0
14,5.05646215918297
15,-11.464855005001454
16,1.8025192682463285
17,-9.165599123836558
18,5.59250035800067
2,1, 1, 1, 0, 7,15.00,30.00,Tuesday
7,-10.6
8,0.0
9,0.0
10,0.0
11,0.0
12,0.0
13,0.0
14,5.004953347668333
15,-11.443272673566396
16,1.7531267251401915
17,-9.197220286203333
18,5.538609151741113
2,1, 1, 1, 0, 7,30.00,45.00,Tuesday
7,-10.6
8,0.0
9,0.0
10,0.0
11,0.0
12,0.0
13,0.0
14,4.953744296059173
15,-11.422789708255373
16,1.704200531641618
17,-9.22801906036159
18,5.485195913240409
2,1, 1, 1, 0, 7,45.00,60.00,Tuesday
7,-10.6
8,0.0
9,0.0
10,0.0
11,0.0
12,0.0
13,0.0
14,4.902840586169973
15,-11.40334079011211
16,1.6557874101535504
17,-9.257849369194674
18,5.432149915795947
2,1, 1, 1, 0, 8, 0.00,15.00,Tuesday
7,-10.45
8,0.0
9,0.0
10,0.0
11,0.0
12,0.0
13,0.0
14,4.851435051391626
15,-11.353816823559434
16,1.6329799029905417
17,-9.20511455399128
18,5.379170377103628
2,1, 1, 1, 0, 8,15.00,30.00,Tuesday
7,-10.3
8,174.78643513730783
9,1.0
10,22.819555959623899
11,1.0
12,22.819555959623899
13,174.78643513730783
14,4.923467534980966
15,-9.680039825139576
16,1.9231065235325105
17,-8.88005125685919
18,5.345195581707878
2,1, 1, 1, 0, 8,30.00,45.00,Tuesday
7,-10.15
8,858.203148477003
9,1.0
10,109.75755355442667
11,1.0
12,109.75755355442667
13,858.203148477003
14,5.332530376076376
15,-3.30735157471995
16,3.1647402931703256
17,-7.783334298934733
18,5.383143049912948
2,1, 1, 1, 0, 8,45.00,60.00,Tuesday
7,-10.0
8,1560.5502946662705
9,1.0
10,195.8764694434918
11,1.0
12,195.8764694434918
13,1560.5502946662705
14,5.850955203958501
15,3.171416705784723
16,4.538751708501877
17,-6.689541382779396
18,5.5006037317358429
2,1, 1, 1, 0, 9, 0.00,15.00,Tuesday
7,-9.725
8,2260.478286978658
9,1.0
10,278.97248314719988
11,1.0
12,278.97248314719988
13,2260.478286978658
14,6.293935834726552
15,8.350077240765343
16,5.975028599864231
17,-5.695019305337269
18,5.673410559288152
2,1, 1, 1, 0, 9,15.00,30.00,Tuesday
7,-9.45
8,2998.2825980372706
9,1.0
10,364.91995730569456
11,1.0
12,364.91995730569456
13,2998.2825980372706
14,6.748460543274685
15,13.426205188613194
16,7.387358166969193
17,-4.703863902812827
18,5.892382629661732
2,1, 1, 1, 0, 9,30.00,45.00,Tuesday
7,-9.175
8,3486.4111268376329
9,1.0
10,420.35879993239237
11,1.0
12,420.35879993239237
13,3486.4111268376329
14,7.073682360582487
15,16.183394874347937
16,8.33601966404558
17,-4.0916474528594339
18,6.137082801263803
2,1, 1, 1, 0, 9,45.00,60.00,Tuesday
7,-8.9
8,3993.128426157019
9,1.0
10,478.00138373643099
11,1.0
12,478.00138373643099
13,3993.128426157019
14,7.454168554987854
15,19.177829223155699
16,9.276944876660707
17,-3.458852818836931
18,6.396776515827163
2,1, 1, 1, 0,10, 0.00,15.00,Tuesday
7,-8.350000000000002
8,4510.551232759963
9,1.0
10,536.9185644770597
11,1.0
12,536.9185644770597
13,4510.551232759963
14,7.782904968290748
15,20.29322721186275
16,10.249438387182125
17,-2.7831566260375668
18,6.671485251272212
2,1, 1, 1, 0,10,15.00,30.00,Tuesday
7,-7.800000000000001
8,5045.849443282557
9,1.0
10,598.0969199229219
11,1.0
12,598.0969199229219
13,5045.849443282557
14,8.141678810629373
15,21.544600063990445
16,11.238446205171727
17,-2.107697101060296
18,6.966752420290568
2,1, 1, 1, 0,10,30.00,45.00,Tuesday
7,-7.25
8,5397.011282253594
9,1.0
10,637.6133352894237
11,1.0
12,637.6133352894237
13,5397.011282253594
14,8.422460121480829
15,21.602779343573454
16,11.961058180902115
17,-1.6282474081621672
18,7.091468244722467
2,1, 1, 1, 0,10,45.00,60.00,Tuesday
7,-6.7
8,5743.000693856546
9,1.0
10,676.6412284283772
11,1.0
12,676.6412284283772
13,5743.000693856546
14,8.681949327136295
15,21.76052143038879
16,12.631835080861436
17,-1.1547234806837424
18,7.337316266947681
2,1, 1, 1, 0,11, 0.00,15.00,Tuesday
7,-6.275
8,6082.695675917921
9,1.0
10,715.0112779846514
11,1.0
12,715.0112779846514
13,6082.695675917921
14,8.989466536006617
15,23.857423132796276
16,13.313791334757582
17,-0.4649495732991227
18,7.527373951106491
2,1, 1, 1, 0,11,15.00,30.00,Tuesday
7,-5.85
8,6414.39465967039
9,1.0
10,752.5077794605232
11,1.0
12,752.5077794605232
13,6414.39465967039
14,9.364637464020556
15,25.794272544691844
16,14.022706791344377
17,0.21054959879739955
18,7.9725052839288559
2,1, 1, 1, 0,11,30.00,45.00,Tuesday
7,-5.425
8,6315.814248175096
9,1.0
10,742.5988714321785
11,1.0
12,742.5988714321785
13,6315.814248175096
14,9.654356213396508
15,25.64791269387827
16,14.240946486308758
17,0.5160147688308143
18,8.366923967061542
2,1, 1, 1, 0,11,45.00,60.00,Tuesday
7,-5.0
8,6174.954337028296
9,1.0
10,727.8169025450712
11,1.0
12,727.8169025450712
13,6174.954337028296
14,9.905926398230923
15,25.418968900863807
16,14.374421118945918
17,0.7914987215386873
18,8.702525187318603
2,1, 1, 1, 0,12, 0.00,15.00,Tuesday
7,-4.575
8,5932.717969038884
9,1.0
10,700.3759009170325
11,1.0
12,700.3759009170325
13,5932.717969038884
14,10.084444891950337
15,24.676901724825503
16,14.347077693725737
17,1.0110600068836675
18,8.98597621498722
2,1, 1, 1, 0,12,15.00,30.00,Tuesday
7,-4.15
8,5753.068365338621
9,1.0
10,681.6705029034473
11,1.0
12,681.6705029034473
13,5753.068365338621
14,10.247988047431648
15,24.346113251665686
16,14.371182572173666
17,1.2921346895092257
18,9.231499672796727
2,1, 1, 1, 0,12,30.00,45.00,Tuesday
7,-3.7249999999999998
8,5050.714880007159
9,1.0
10,602.01865277251
11,1.0
12,602.01865277251
13,5050.714880007159
14,10.19256370668297
15,21.31885576363941
16,13.69431938815012
17,1.1174039623921317
18,9.416461929387456
2,1, 1, 1, 0,12,45.00,60.00,Tuesday
7,-3.3
8,4124.982286974308
9,1.0
10,493.55004396206007
11,1.0
12,493.55004396206007
13,4124.982286974308
14,10.00225908118671
15,17.14078092308104
16,12.573795343977963
17,0.7007028395270254
18,9.514374551995739
2,1, 1, 1, 0,13, 0.00,15.00,Tuesday
7,-3.0249999999999996
8,3405.982249242871
9,1.0
10,412.335026418112
11,1.0
12,412.335026418112
13,3405.982249242871
14,9.871242286248157
15,14.297299404753924
16,11.670568817923254
17,0.42270414614779386
18,9.542706278202479
2,1, 1, 1, 0,13,15.00,30.00,Tuesday
7,-2.75
8,2494.5683911657336
9,1.0
10,305.94037763660148
11,1.0
12,305.94037763660148
13,2494.5683911657336
14,9.55802862312011
15,10.124637452253085
16,10.403246736087113
17,-0.07397728506805379
18,9.512036217488888
2,1, 1, 1, 0,13,30.00,45.00,Tuesday
7,-2.475
8,2277.4526367490859
9,1.0
10,281.0763483922329
11,1.0
12,281.0763483922329
13,2277.4526367490859
14,9.530833808280203
15,9.61279731757856
16,10.093334700219089
17,0.054021282899157089
18,9.463361793220365
2,1, 1, 1, 0,13,45.00,60.00,Tuesday
7,-2.2
8,2064.8597035752579
9,1.0
10,256.7721209415886
11,1.0
12,256.7721209415886
13,2064.8597035752579
14,9.49549460475968
15,9.006383533472239
16,9.861909898212844
17,0.20680715197283917
18,9.421821431072472
2,1, 1, 1, 0,14, 0.00,15.00,Tuesday
7,-1.9250000000000003
8,1686.780371983638
9,1.0
10,210.73276284570657
11,1.0
12,210.73276284570657
13,1686.780371983638
14,9.346765296613258
15,7.459474230230999
16,9.293048711373672
17,0.1445410801621847
18,9.384704137000176
2,1, 1, 1, 0,14,15.00,30.00,Tuesday
7,-1.6500000000000002
8,1498.4054545925904
9,1.0
10,189.38488290342594
11,1.0
12,189.38488290342594
13,1498.4054545925904
14,9.31018345733062
15,7.05585551338071
16,9.036451588422665
17,0.275122239175289
18,9.351623795926822
2,1, 1, 1, 0,14,30.00,45.00,Tuesday
7,-1.375
8,1429.054750166918
9,1.0
10,179.3940297802914
11,1.0
12,179.3940297802914
13,1429.054750166918
14,9.299969438217538
15,7.17970506089846
16,8.98508704752544
17,0.5139634824215591
18,9.323801190690304
2,1, 1, 1, 0,14,45.00,60.00,Tuesday
7,-1.1
8,1358.91175197242
9,1.0
10,169.43349014176136
11,1.0
12,169.43349014176136
13,1358.91175197242
14,9.285998364850692
15,7.279584866742443
16,8.926745029292306
17,0.7512814610398664
18,9.30059098029305
2,1, 1, 1, 0,15, 0.00,15.00,Tuesday
7,-1.1
8,1430.33987243094
9,1.0
10,178.15692317953907
11,1.0
12,178.15692317953907
13,1430.33987243094
14,9.350160039123362
15,8.099031162650658
16,9.058036707246118
17,0.885676077336143
18,9.285555036207159
2,1, 1, 1, 0,15,15.00,30.00,Tuesday
7,-1.1
8,1343.765027670826
9,1.0
10,166.40516310952945
11,1.0
12,166.40516310952945
13,1343.765027670826
14,9.29725171972353
15,7.735924909229774
16,8.919619267843416
17,0.8360894562811154
18,9.273431318610916
2,1, 1, 1, 0,15,30.00,45.00,Tuesday
7,-1.1
8,1133.0385269841118
9,1.0
10,140.8967369711617
11,1.0
12,140.8967369711617
13,1133.0385269841118
14,9.171566496700266
15,6.5283099354777429
16,8.542832450813194
17,0.6283126352304294
18,9.25360221870188
2,1, 1, 1, 0,15,45.00,60.00,Tuesday
7,-1.1
8,932.3983670635688
9,1.0
10,116.57355796743004
11,1.0
12,116.57355796743004
13,932.3983670635688
14,9.060098929228279
15,5.324361209464154
16,8.170079010797395
17,0.4117620233720345
18,9.214138758055018
2,1, 1, 1, 0,16, 0.00,15.00,Tuesday
7,-1.1
8,740.0045419021534
9,1.0
10,93.14939272689483
11,1.0
12,93.14939272689483
13,740.0045419021534
14,8.950992519240165
15,4.274782552728423
16,7.8385297652835679
17,0.2779057757322789
18,9.15351476697257
2,1, 1, 1, 0,16,15.00,30.00,Tuesday
7,-1.1
8,459.3961604879595
9,1.0
10,57.94047897402063
11,1.0
12,57.94047897402063
13,459.3961604879595
14,8.750419642357949
15,2.1530058946302477
16,7.329913314631767
17,0.0002796028189777644
18,9.065223020249235
2,1, 1, 1, 0,16,30.00,45.00,Tuesday
7,-1.1
8,356.182088796304
9,1.0
10,45.38251793443488
11,1.0
12,45.38251793443488
13,356.182088796304
14,8.669001839351028
15,1.5450707997091833
16,7.105468081390029
17,-0.041084057628268059
18,8.96550475773629
2,1, 1, 1, 0,16,45.00,60.00,Tuesday
7,-1.1
8,248.63869515531713
9,1.0
10,32.02625108222755
11,1.0
12,32.02625108222755
13,248.63869515531713
14,8.54874356432584
15,0.6849912026573942
16,6.8956223138826548
17,-0.08523617971320619
18,8.867926550236149
2,1, 1, 1, 0,17, 0.00,15.00,Tuesday
7,-1.1
8,136.37797604924058
9,1.0
10,17.762198626050539
11,1.0
12,17.762198626050539
13,136.37797604924058
14,8.404430887814048
15,-0.5618693143941695
16,6.63392108726498
17,-0.2399962959573827
18,8.77136260831737
2,1, 1, 1, 0,17,15.00,30.00,Tuesday
7,-1.1
8,0.0
9,0.0
10,0.0
11,0.0
12,0.0
13,0.0
14,8.2104674045417
15,-2.3970586416117944
16,6.294682267480198
17,-0.5118264257382634
18,8.663053090443972
2,1, 1, 1, 0,17,30.00,45.00,Tuesday
7,-1.1
8,0.0
9,0.0
10,0.0
11,0.0
12,0.0
13,0.0
14,8.150756705438667
15,-2.5309192345237156
16,6.207628335110826
17,-0.4930540415560358
18,8.557615964355922
2,1, 1, 1, 0,17,45.00,60.00,Tuesday
7,-1.1
8,0.0
9,0.0
10,0.0
11,0.0
12,0.0
13,0.0
14,8.075273482757386
15,-2.718289756514027
16,6.161879717414536
17,-0.45855587598009608
18,8.46878337349054
2,1, 1, 1, 0,18, 0.00,15.00,Tuesday
7,-1.25
8,0.0
9,0.0
10,0.0
11,0.0
12,0.0
13,0.0
14,8.011271351002839
15,-2.8666006453173584
16,6.069220575200177
17,-0.6000649478453397
18,8.397088381048033
2,1, 1, 1, 0,18,15.00,30.00,Tuesday
7,-1.4
8,0.0
9,0.0
10,0.0
11,0.0
12,0.0
13,0.0
14,7.952730690681709
15,-3.0190485865034755
16,5.99084694882697
17,-0.7320417734987359
18,8.33709696481276
2,1, 1, 1, 0,18,30.00,45.00,Tuesday
7,-1.5499999999999999
8,0.0
9,0.0
10,0.0
11,0.0
12,0.0
13,0.0
14,7.898446485468604
15,-3.171089312727513
16,5.9190063261273739
17,-0.8582798054460454
18,8.28334492729418
2,1, 1, 1, 0,18,45.00,60.00,Tuesday
7,-1.7
8,0.0
9,0.0
10,0.0
11,0.0
12,0.0
13,0.0
14,7.846086628450286
15,-3.3232980958364926
16,5.847616268167144
17,-0.9889612285870726
18,8.23248979842084
2,1, 1, 1, 0,19, 0.00,15.00,Tuesday
7,-1.825
8,0.0
9,0.0
10,0.0
11,0.0
12,0.0
13,0.0
14,7.817905272549153
15,-3.181595005178424
16,5.763087221006288
17,-1.1622550874055833
18,8.186379188075469
2,1, 1, 1, 0,19,15.00,30.00,Tuesday
7,-1.9500000000000002
8,0.0
9,0.0
10,0.0
11,0.0
12,0.0
13,0.0
14,7.788532244106549
15,-3.1205434820751765
16,5.694532571218701
17,-1.3206249896578584
18,8.146791584196079
2,1, 1, 1, 0,19,30.00,45.00,Tuesday
7,-2.075
8,0.0
9,0.0
10,0.0
11,0.0
12,0.0
13,0.0
14,7.754936632165851
15,-3.1959070099792137
16,5.641498906228037
17,-1.4402120429944603
18,8.112353338968126
2,1, 1, 1, 0,19,45.00,60.00,Tuesday
7,-2.2
8,0.0
9,0.0
10,0.0
11,0.0
12,0.0
13,0.0
14,7.724108962432396
15,-3.1787093494106166
16,5.577451679557782
17,-1.5912747878725782
18,8.080013198094383
2,1, 1, 1, 0,20, 0.00,15.00,Tuesday
7,-1.9250000000000003
8,0.0
9,0.0
10,0.0
11,0.0
12,0.0
13,0.0
14,7.709016074759994
15,-2.878784826207626
16,5.613902721607815
17,-1.3885126792660004
18,8.05034330649658
2,1, 1, 1, 0,20,15.00,30.00,Tuesday
7,-1.6500000000000002
8,0.0
9,0.0
10,0.0
11,0.0
12,0.0
13,0.0
14,7.694372958105513
15,-2.5817298517785818
16,5.648532272012517
17,-1.1742038671828823
18,8.023924595006032
2,1, 1, 1, 0,20,30.00,45.00,Tuesday
7,-1.375
8,0.0
9,0.0
10,0.0
11,0.0
12,0.0
13,0.0
14,7.6815369626474399
15,-2.2859026598875564
16,5.68479693066115
17,-0.9575251402514482
18,8.000377345393792
2,1, 1, 1, 0,20,45.00,60.00,Tuesday
7,-1.1
8,0.0
9,0.0
10,0.0
11,0.0
12,0.0
13,0.0
14,7.6702880328207769
15,-1.9912881090436903
16,5.7231224739971939
17,-0.7386309235479303
18,7.978992016368455
2,1, 1, 1, 0,21, 0.00,15.00,Tuesday
7,-1.25
8,0.0
9,0.0
10,0.0
11,0.0
12,0.0
13,0.0
14,7.619199825707976
15,-2.267262731732416
16,5.683201610402307
17,-0.8087895243605772
18,7.953051803303973
2,1, 1, 1, 0,21,15.00,30.00,Tuesday
7,-1.4
8,0.0
9,0.0
10,0.0
11,0.0
12,0.0
13,0.0
14,7.568845175966102
15,-2.48109111041217
16,5.628186016421239
17,-0.9029964117014515
18,7.9179379192644829
2,1, 1, 1, 0,21,30.00,45.00,Tuesday
7,-1.5499999999999999
8,0.0
9,0.0
10,0.0
11,0.0
12,0.0
13,0.0
14,7.505480508133893
15,-2.818562524086132
16,5.580519140264869
17,-0.9637569676470434
18,7.872922078680237
2,1, 1, 1, 0,21,45.00,60.00,Tuesday
7,-1.7
8,0.0
9,0.0
10,0.0
11,0.0
12,0.0
13,0.0
14,7.4368438140631138
15,-3.2625796988577258
16,5.533653245046139
17,-0.9946735508258371
18,7.820325990202118
2,1, 1, 1, 0,22, 0.00,15.00,Tuesday
7,-1.5499999999999999
8,0.0
9,0.0
10,0.0
11,0.0
12,0.0
13,0.0
14,7.43472661864811
15,-2.7843251477814254
16,5.495134551268052
17,-0.9785939068524385
18,7.773503027736344
2,1, 1, 1, 0,22,15.00,30.00,Tuesday
7,-1.4
8,0.0
9,0.0
10,0.0
11,0.0
12,0.0
13,0.0
14,7.421471769339457
15,-2.460506619691784
16,5.491737275943933
17,-0.9243896071445761
18,7.739431672514455
2,1, 1, 1, 0,22,30.00,45.00,Tuesday
7,-1.25
8,0.0
9,0.0
10,0.0
11,0.0
12,0.0
13,0.0
14,7.409477762959675
15,-2.243193159621796
16,5.4995909595699
17,-0.8344038685451665
18,7.715903951268234
2,1, 1, 1, 0,22,45.00,60.00,Tuesday
7,-1.1
8,0.0
9,0.0
10,0.0
11,0.0
12,0.0
13,0.0
14,7.399305428159143
15,-1.965777495131472
16,5.505124656781732
17,-0.7562876015196594
18,7.697531439595259
2,1, 1, 1, 0,23, 0.00,15.00,Tuesday
7,-1.25
8,0.0
9,0.0
10,0.0
11,0.0
12,0.0
13,0.0
14,7.347599554216479
15,-2.2690240105200254
16,5.412220158155492
17,-1.033182914133647
18,7.673844429170767
2,1, 1, 1, 0,23,15.00,30.00,Tuesday
7,-1.4
8,0.0
9,0.0
10,0.0
11,0.0
12,0.0
13,0.0
14,7.297962083520924
15,-2.5736998327651849
16,5.3078217072951479
17,-1.3250832143921799
18,7.639910693372447
2,1, 1, 1, 0,23,30.00,45.00,Tuesday
7,-1.5499999999999999
8,0.0
9,0.0
10,0.0
11,0.0
12,0.0
13,0.0
14,7.243567621945016
15,-2.879013576839314
16,5.201385774029632
17,-1.6187171683973248
18,7.597040443236835
2,1, 1, 1, 0,23,45.00,60.00,Tuesday
7,-1.7
8,0.0
9,0.0
10,0.0
11,0.0
12,0.0
13,0.0
14,7.185266172181855
15,-3.184671897618584
16,5.09072265085797
17,-1.9146647882281514
18,7.548284876032306
2,1, 1, 1, 0,24, 0.00,15.00,Tuesday
7,-1.7
8,0.0
9,0.0
10,0.0
11,0.0
12,0.0
13,0.0
14,7.1427767086090558
15,-3.2388414012230557
16,5.037227252448247
17,-1.9809124468142728
18,7.499239508262004
2,1, 1, 1, 0,24,15.00,30.00,Tuesday
7,-1.7
8,0.0
9,0.0
10,0.0
11,0.0
12,0.0
13,0.0
14,7.0982308225195169
15,-3.293586527705444
16,4.988317977204133
17,-2.0435324874619029
18,7.452825904442517
2,1, 1, 1, 0,24,30.00,45.00,Tuesday
7,-1.7
8,0.0
9,0.0
10,0.0
11,0.0
12,0.0
13,0.0
14,7.054816601350773
15,-3.3482238704303506
16,4.939259157824097
17,-2.105982554821537
18,7.408957615359428
2,1, 1, 1, 0,24,45.00,60.00,Tuesday
7,-1.7
8,0.0
9,0.0
10,0.0
11,0.0
12,0.0
13,0.0
14,7.012238619586248
15,-3.4028645587427936
16,4.891144651402101
17,-2.1680915794311206
18,7.366574990602328
End of Data
 Number of Records Written=        1152
