Program Version,EnergyPlus, Version 9.5.0-de239b2e5f, YMD=2022.11.01 22:08
1,5,Environment Title[],Latitude[deg],Longitude[deg],Time Zone[],Elevation[m]
2,8,Day of Simulation[],Month[],Day of Month[],DST Indicator[1=yes 0=no],Hour[],StartMinute[],EndMinute[],DayType
3,5,Cumulative Day of Simulation[],Month[],Day of Month[],DST Indicator[1=yes 0=no],DayType  ! When Daily Report Variables Requested
4,2,Cumulative Days of Simulation[],Month[]  ! When Monthly Report Variables Requested
5,1,Cumulative Days of Simulation[] ! When Run Period Report Variables Requested
6,1,Calendar Year of Simulation[] ! When Annual Report Variables Requested
7,1,Environment,Site Outdoor Air Drybulb Temperature [C] !TimeStep
8,1,ZONE ONE,Zone Windows Total Transmitted Solar Radiation Rate [W] !TimeStep
9,1,ZN001:WALL001,Surface Outside Face Sunlit Fraction [] !TimeStep
10,1,ZN001:WALL001,Surface Outside Face Incident Solar Radiation Rate per Area [W/m2] !TimeStep
11,1,ZN001:WALL001:WIN001,Surface Outside Face Sunlit Fraction [] !TimeStep
12,1,ZN001:WALL001:WIN001,Surface Outside Face Incident Solar Radiation Rate per Area [W/m2] !TimeStep
13,1,ZN001:WALL001:WIN001,Surface Window Transmitted Solar Radiation Rate [W] !TimeStep
14,1,ZN001:WALL001,Surface Inside Face Temperature [C] !TimeStep
15,1,ZN001:WALL001,Surface Outside Face Temperature [C] !TimeStep
16,1,ZN001:WALL001:WIN001,Surface Inside Face Temperature [C] !TimeStep
17,1,ZN001:WALL001:WIN001,Surface Outside Face Temperature [C] !TimeStep
18,1,ZONE ONE,Zone Mean Air Temperature [C] !TimeStep
End of Data Dictionary
1,RUN PERIOD 1,  41.98, -87.92,  -6.00, 201.00
2,1, 1, 1, 0, 1, 0.00,15.00,Tuesday
7,-4.324999999999999
8,0.0
9,0.0
10,0.0
11,0.0
12,0.0
13,0.0
14,2.6519758829168329
15,-5.955662127564826
16,0.9018071430915029
17,-4.934540294513511
18,3.0281803484537259
2,1, 1, 1, 0, 1,15.00,30.00,Tuesday
7,-6.949999999999999
8,0.0
9,0.0
10,0.0
11,0.0
12,0.0
13,0.0
14,2.4751909855000937
15,-8.423534782667558
16,0.28755869026838357
17,-7.022219575667407
18,2.94065104950172
2,1, 1, 1, 0, 1,30.00,45.00,Tuesday
7,-9.575
8,0.0
9,0.0
10,0.0
11,0.0
12,0.0
13,0.0
14,2.2786766574443488
15,-10.899623177537574
16,-0.32997433112336696
17,-9.11657874247868
18,2.820346780718209
2,1, 1, 1, 0, 1,45.00,60.00,Tuesday
7,-12.2
8,0.0
9,0.0
10,0.0
11,0.0
12,0.0
13,0.0
14,2.066363070755056
15,-13.382287859232348
16,-0.9613185281168057
17,-11.219002956074974
18,2.6766962940549114
2,1, 1, 1, 0, 2, 0.00,15.00,Tuesday
7,-12.075
8,0.0
9,0.0
10,0.0
11,0.0
12,0.0
13,0.0
14,2.007918245206796
15,-13.1837620321768
16,-1.0242198572637449
17,-11.069046102716698
18,2.5468148152175908
2,1, 1, 1, 0, 2,15.00,30.00,Tuesday
7,-11.95
8,0.0
9,0.0
10,0.0
11,0.0
12,0.0
13,0.0
14,1.935021079868931
15,-13.006504770031379
16,-1.0488358922436306
17,-10.921847702472235
18,2.448491782243681
2,1, 1, 1, 0, 2,30.00,45.00,Tuesday
7,-11.825
8,0.0
9,0.0
10,0.0
11,0.0
12,0.0
13,0.0
14,1.879107431089102
15,-12.828057727742806
16,-1.068353133886717
17,-10.774271653643837
18,2.3771879648733447
2,1, 1, 1, 0, 2,45.00,60.00,Tuesday
7,-11.7
8,0.0
9,0.0
10,0.0
11,0.0
12,0.0
13,0.0
14,1.834545587645182
15,-12.649674446919056
16,-1.0752437279857077
17,-10.624035057349204
18,2.322244074576124
2,1, 1, 1, 0, 3, 0.00,15.00,Tuesday
7,-11.549999999999999
8,0.0
9,0.0
10,0.0
11,0.0
12,0.0
13,0.0
14,1.7916991530465483
15,-12.524845717516737
16,-1.0739625885204305
17,-10.493157497375592
18,2.274671874800423
2,1, 1, 1, 0, 3,15.00,30.00,Tuesday
7,-11.399999999999999
8,0.0
9,0.0
10,0.0
11,0.0
12,0.0
13,0.0
14,1.7522720527257548
15,-12.401436973426913
16,-1.0735182296403992
17,-10.353901871146036
18,2.229789414192935
2,1, 1, 1, 0, 3,30.00,45.00,Tuesday
7,-11.25
8,0.0
9,0.0
10,0.0
11,0.0
12,0.0
13,0.0
14,1.7138547609338524
15,-12.279618520550193
16,-1.0716119596268073
17,-10.213839073399754
18,2.1860766816893326
2,1, 1, 1, 0, 3,45.00,60.00,Tuesday
7,-11.1
8,0.0
9,0.0
10,0.0
11,0.0
12,0.0
13,0.0
14,1.6759791682154326
15,-12.159450390427269
16,-1.0690664139882529
17,-10.073956542988583
18,2.143248593080438
2,1, 1, 1, 0, 4, 0.00,15.00,Tuesday
7,-11.1
8,0.0
9,0.0
10,0.0
11,0.0
12,0.0
13,0.0
14,1.6344939013353417
15,-12.129226098681122
16,-1.1145090228939126
17,-10.091422446234902
18,2.100443900163515
2,1, 1, 1, 0, 4,15.00,30.00,Tuesday
7,-11.1
8,0.0
9,0.0
10,0.0
11,0.0
12,0.0
13,0.0
14,1.5934128224921358
15,-12.100172043791732
16,-1.1545243006329998
17,-10.115958371565114
18,2.0573265316246998
2,1, 1, 1, 0, 4,30.00,45.00,Tuesday
7,-11.1
8,0.0
9,0.0
10,0.0
11,0.0
12,0.0
13,0.0
14,1.5521854616934928
15,-12.07273547264758
16,-1.1938130501899878
17,-10.140423708625918
18,2.0139805149114826
2,1, 1, 1, 0, 4,45.00,60.00,Tuesday
7,-11.1
8,0.0
9,0.0
10,0.0
11,0.0
12,0.0
13,0.0
14,1.5108956120910795
15,-12.046783011154375
16,-1.2329057447382184
17,-10.164174889163292
18,1.9705770853233798
2,1, 1, 1, 0, 5, 0.00,15.00,Tuesday
7,-10.975
8,0.0
9,0.0
10,0.0
11,0.0
12,0.0
13,0.0
14,1.4752899304376109
15,-11.924598543122884
16,-1.2369923390330087
17,-10.076011636018166
18,1.9282310040497968
2,1, 1, 1, 0, 5,15.00,30.00,Tuesday
7,-10.85
8,0.0
9,0.0
10,0.0
11,0.0
12,0.0
13,0.0
14,1.439873847494562
15,-11.802505061877085
16,-1.242920912689442
17,-9.980013495485423
18,1.8874133850252102
2,1, 1, 1, 0, 5,30.00,45.00,Tuesday
7,-10.725
8,0.0
9,0.0
10,0.0
11,0.0
12,0.0
13,0.0
14,1.4054225217580337
15,-11.680390732804796
16,-1.248595134948232
17,-9.883180774211496
18,1.847926297967815
2,1, 1, 1, 0, 5,45.00,60.00,Tuesday
7,-10.6
8,0.0
9,0.0
10,0.0
11,0.0
12,0.0
13,0.0
14,1.3717863981969883
15,-11.558286256183692
16,-1.2535161661575103
17,-9.78612116590375
18,1.8094162077122072
2,1, 1, 1, 0, 6, 0.00,15.00,Tuesday
7,-10.6
8,0.0
9,0.0
10,0.0
11,0.0
12,0.0
13,0.0
14,1.3309132276330329
15,-11.55911773845942
16,-1.2853182418867846
17,-9.788524542270182
18,1.770399162161393
2,1, 1, 1, 0, 6,15.00,30.00,Tuesday
7,-10.6
8,0.0
9,0.0
10,0.0
11,0.0
12,0.0
13,0.0
14,1.2906577282589887
15,-11.55986752457387
16,-1.3188685965153582
17,-9.794384763648282
18,1.7300860466796136
2,1, 1, 1, 0, 6,30.00,45.00,Tuesday
7,-10.6
8,0.0
9,0.0
10,0.0
11,0.0
12,0.0
13,0.0
14,1.249839345270667
15,-11.560661051016434
16,-1.3548301862318795
17,-9.79896675933054
18,1.6885768759669178
2,1, 1, 1, 0, 6,45.00,60.00,Tuesday
7,-10.6
8,0.0
9,0.0
10,0.0
11,0.0
12,0.0
13,0.0
14,1.2086945049526075
15,-11.561457225244654
16,-1.3866105001310417
17,-9.807155223169503
18,1.6464994754438165
2,1, 1, 1, 0, 7, 0.00,15.00,Tuesday
7,-10.6
8,0.0
9,0.0
10,0.0
11,0.0
12,0.0
13,0.0
14,1.1696337304711276
15,-11.536527600807739
16,-1.426644455456767
17,-9.825488403001146
18,1.6044840425115353
2,1, 1, 1, 0, 7,15.00,30.00,Tuesday
7,-10.6
8,0.0
9,0.0
10,0.0
11,0.0
12,0.0
13,0.0
14,1.1304146115163792
15,-11.51289295423368
16,-1.463156209973647
17,-9.844838302982112
18,1.562933948464266
2,1, 1, 1, 0, 7,30.00,45.00,Tuesday
7,-10.6
8,0.0
9,0.0
10,0.0
11,0.0
12,0.0
13,0.0
14,1.0914508503804029
15,-11.490455747810236
16,-1.4992518040443202
17,-9.863806601696752
18,1.5218714787185513
2,1, 1, 1, 0, 7,45.00,60.00,Tuesday
7,-10.6
8,0.0
9,0.0
10,0.0
11,0.0
12,0.0
13,0.0
14,1.0527742894365746
15,-11.469145532762937
16,-1.5349261869349676
17,-9.882137267066583
18,1.4811878945203175
2,1, 1, 1, 0, 8, 0.00,15.00,Tuesday
7,-10.45
8,0.0
9,0.0
10,0.0
11,0.0
12,0.0
13,0.0
14,1.0132600094061853
15,-11.421065371104213
16,-1.55024063225369
17,-9.836853994671629
18,1.440470634558762
2,1, 1, 1, 0, 8,15.00,30.00,Tuesday
7,-10.3
8,96.42661238991946
9,1.0
10,22.819555959623899
11,1.0
12,22.819555959623899
13,96.42661238991946
14,1.0832197352367812
15,-9.748059635797187
16,-1.1724767292292882
17,-9.46111655525101
18,1.4154326390762198
2,1, 1, 1, 0, 8,30.00,45.00,Tuesday
7,-10.15
8,474.6054163320474
9,1.0
10,109.75755355442667
11,1.0
12,109.75755355442667
13,474.6054163320474
14,1.450917748552808
15,-3.3862004059920944
16,0.3896922609711737
17,-8.137632965039757
18,1.4491559273973956
2,1, 1, 1, 0, 8,45.00,60.00,Tuesday
7,-10.0
8,866.2445644558209
9,1.0
10,195.8764694434918
11,1.0
12,195.8764694434918
13,866.2445644558209
14,1.9462587656880173
15,3.139450496166551
16,2.121636129279864
17,-6.8131108272705209
18,1.5457127300164107
2,1, 1, 1, 0, 9, 0.00,15.00,Tuesday
7,-9.725
8,1259.6795884268127
9,1.0
10,278.97248314719988
11,1.0
12,278.97248314719988
13,1259.6795884268127
14,2.2723264957798294
15,8.277705653956947
16,3.6732714468108158
17,-5.667240459765253
18,1.6922412360216075
2,1, 1, 1, 0, 9,15.00,30.00,Tuesday
7,-9.45
8,1677.48308559014
9,1.0
10,364.91995730569456
11,1.0
12,364.91995730569456
13,1677.48308559014
14,2.6663856206188405
15,13.36440329102362
16,5.2019414492644959
17,-4.5338305307312229
18,1.8804239208747605
2,1, 1, 1, 0, 9,30.00,45.00,Tuesday
7,-9.175
8,1957.8502286562494
9,1.0
10,420.35879993239237
11,1.0
12,420.35879993239237
13,1957.8502286562494
14,2.9340691231140978
15,16.12254446550456
16,6.211688094106194
17,-3.8419255356511146
18,2.090489859889181
2,1, 1, 1, 0, 9,45.00,60.00,Tuesday
7,-8.9
8,2249.975052939502
9,1.0
10,478.00138373643099
11,1.0
12,478.00138373643099
13,2249.975052939502
14,3.25039742304677
15,19.118079288009974
16,7.223256735252562
17,-3.1239483236693106
18,2.3126904366472549
2,1, 1, 1, 0,10, 0.00,15.00,Tuesday
7,-8.350000000000002
8,2549.238715569734
9,1.0
10,536.9185644770597
11,1.0
12,536.9185644770597
13,2549.238715569734
14,3.508641210933993
15,20.237626920584117
16,8.259711370156424
17,-2.3847705791887394
18,2.5490537900775984
2,1, 1, 1, 0,10,15.00,30.00,Tuesday
7,-7.800000000000001
8,2859.4267895537575
9,1.0
10,598.0969199229219
11,1.0
12,598.0969199229219
13,2859.4267895537575
14,3.79195829844206
15,21.492131727608176
16,9.31514446519958
17,-1.6491738613587473
18,2.805119064421233
2,1, 1, 1, 0,10,30.00,45.00,Tuesday
7,-7.25
8,3065.6302613954669
9,1.0
10,637.6133352894237
11,1.0
12,637.6133352894237
13,3065.6302613954669
14,4.006805713227732
15,21.553256219354745
16,10.057594475746214
17,-1.1475309191743009
18,3.066401074927194
2,1, 1, 1, 0,10,45.00,60.00,Tuesday
7,-6.7
8,3268.9015228274099
9,1.0
10,676.6412284283772
11,1.0
12,676.6412284283772
13,3268.9015228274099
14,4.2406981388774869
15,21.714558018693816
16,10.775658692905268
17,-0.6496725115529216
18,3.3221005846631788
2,1, 1, 1, 0,11, 0.00,15.00,Tuesday
7,-6.275
8,3468.4787947962906
9,1.0
10,715.0112779846514
11,1.0
12,715.0112779846514
13,3468.4787947962906
14,4.551139242525418
15,23.812071371080689
16,11.5346653442258
17,0.09244830355817158
18,3.574968106051633
2,1, 1, 1, 0,11,15.00,30.00,Tuesday
7,-5.85
8,3663.269993408451
9,1.0
10,752.5077794605232
11,1.0
12,752.5077794605232
13,3663.269993408451
14,4.848494550110968
15,25.74705164261995
16,12.282409450704904
17,0.8127160911584497
18,3.8296623128142839
2,1, 1, 1, 0,11,30.00,45.00,Tuesday
7,-5.425
8,3608.864921964747
9,1.0
10,742.5988714321785
11,1.0
12,742.5988714321785
13,3608.864921964747
14,5.018387421069351
15,25.5988916206073
16,12.391533362223413
17,1.0909269434821454
18,4.069942707218211
2,1, 1, 1, 0,11,45.00,60.00,Tuesday
7,-5.0
8,3529.2442557919187
9,1.0
10,727.8169025450712
11,1.0
12,727.8169025450712
13,3529.2442557919187
14,5.18394157197044
15,25.369549812339295
16,12.410401106320876
17,1.3339251952785958
18,4.284234724878591
2,1, 1, 1, 0,12, 0.00,15.00,Tuesday
7,-4.575
8,3391.5177444950588
9,1.0
10,700.3759009170325
11,1.0
12,700.3759009170325
13,3391.5177444950588
14,5.296707241475428
15,24.62682907344538
16,12.259501283154237
17,1.5054680720946863
18,4.466685547647692
2,1, 1, 1, 0,12,15.00,30.00,Tuesday
7,-4.15
8,3287.4311455885356
9,1.0
10,681.6705029034473
11,1.0
12,681.6705029034473
13,3287.4311455885356
14,5.429374327097795
15,24.2962558082423
16,12.210050839105066
17,1.7559982930131355
18,4.624757860994069
2,1, 1, 1, 0,12,30.00,45.00,Tuesday
7,-3.7249999999999998
8,2882.917969185649
9,1.0
10,602.01865277251
11,1.0
12,602.01865277251
13,2882.917969185649
14,5.343970269168404
15,21.267867944801166
16,11.330947864742484
17,1.4670982902744073
18,4.739096966913463
2,1, 1, 1, 0,12,45.00,60.00,Tuesday
7,-3.3
8,2352.621889227392
9,1.0
10,493.55004396206007
11,1.0
12,493.55004396206007
13,2352.621889227392
14,5.158956636526622
15,17.089246780718488
16,9.963117756882639
17,0.8956984511244173
18,4.789285090515427
2,1, 1, 1, 0,13, 0.00,15.00,Tuesday
7,-3.0249999999999996
8,1937.3269634136782
9,1.0
10,412.335026418112
11,1.0
12,412.335026418112
13,1937.3269634136782
14,5.026752851204516
15,14.244568282861668
16,8.89634880253459
17,0.5056513457975598
18,4.7896897738008479
2,1, 1, 1, 0,13,15.00,30.00,Tuesday
7,-2.75
8,1414.5467009856484
9,1.0
10,305.94037763660148
11,1.0
12,305.94037763660148
13,1414.5467009856484
14,4.753137245345087
15,10.07093764316773
16,7.414971776863695
17,-0.14360986676820176
18,4.747071218715731
2,1, 1, 1, 0,13,30.00,45.00,Tuesday
7,-2.475
8,1289.265805070812
9,1.0
10,281.0763483922329
11,1.0
12,281.0763483922329
13,1289.265805070812
14,4.73485643393924
15,9.556069494160499
16,7.076408619328902
17,-0.05170197149516298
18,4.691892464095451
2,1, 1, 1, 0,13,45.00,60.00,Tuesday
7,-2.2
8,1166.5876548844126
9,1.0
10,256.7721209415886
11,1.0
12,256.7721209415886
13,1166.5876548844126
14,4.703897700328435
15,8.950828805944749
16,6.799545208882989
17,0.06426924787166399
18,4.645517826332553
2,1, 1, 1, 0,14, 0.00,15.00,Tuesday
7,-1.9250000000000003
8,951.658001321847
9,1.0
10,210.73276284570657
11,1.0
12,210.73276284570657
13,951.658001321847
14,4.5856453654783408
15,7.4022561850035288
16,6.15999050939638
17,-0.06984572702350533
18,4.604433515222957
2,1, 1, 1, 0,14,15.00,30.00,Tuesday
7,-1.6500000000000002
8,843.0245588935385
9,1.0
10,189.38488290342594
11,1.0
12,189.38488290342594
13,843.0245588935385
14,4.5610689593699569
15,6.9961523618547549
16,5.876415467551055
17,0.023117781910912073
18,4.568131105555503
2,1, 1, 1, 0,14,30.00,45.00,Tuesday
7,-1.375
8,804.6632183508692
9,1.0
10,179.3940297802914
11,1.0
12,179.3940297802914
13,804.6632183508692
14,4.5614625718041819
15,7.117945663231325
16,5.798864505784309
17,0.2364204664154954
18,4.5386572720180029
2,1, 1, 1, 0,14,45.00,60.00,Tuesday
7,-1.1
8,765.5588520000606
9,1.0
10,169.43349014176136
11,1.0
12,169.43349014176136
13,765.5588520000606
14,4.559569535861811
15,7.2157429584053729
16,5.715998086247964
17,0.4474850706749294
18,4.516018554791901
2,1, 1, 1, 0,15, 0.00,15.00,Tuesday
7,-1.1
8,805.2150553481339
9,1.0
10,178.15692317953907
11,1.0
12,178.15692317953907
13,805.2150553481339
14,4.612505468628946
15,8.03129962314657
16,5.867287496715107
17,0.5903842582802099
18,4.503087140198976
2,1, 1, 1, 0,15,15.00,30.00,Tuesday
7,-1.1
8,756.2433790732821
9,1.0
10,166.40516310952945
11,1.0
12,166.40516310952945
13,756.2433790732821
14,4.5721560024207898
15,7.667768474155976
16,5.694383040900675
17,0.5106616711519791
18,4.4942211004448719
2,1, 1, 1, 0,15,30.00,45.00,Tuesday
7,-1.1
8,636.4747232450741
9,1.0
10,140.8967369711617
11,1.0
12,140.8967369711617
13,636.4747232450741
14,4.475679708637869
15,6.460195007417611
16,5.258903269318296
17,0.2460036362357414
18,4.477631851268622
2,1, 1, 1, 0,15,45.00,60.00,Tuesday
7,-1.1
8,522.7235097507638
9,1.0
10,116.57355796743004
11,1.0
12,116.57355796743004
13,522.7235097507638
14,4.366283842692874
15,5.242996398736714
16,4.814273560857259
17,-0.03270399707372462
18,4.446000453904027
2,1, 1, 1, 0,16, 0.00,15.00,Tuesday
7,-1.1
8,414.00812792071397
9,1.0
10,93.14939272689483
11,1.0
12,93.14939272689483
13,414.00812792071397
14,4.280675522804622
15,4.1956550247244499
16,4.375888924104629
17,-0.24803725042124825
18,4.399916887228775
2,1, 1, 1, 0,16,15.00,30.00,Tuesday
7,-1.1
8,256.4738935680605
9,1.0
10,57.94047897402063
11,1.0
12,57.94047897402063
13,256.4738935680605
14,4.110058654027002
15,2.0663004340778667
16,3.7206519109611806
17,-0.648158714518388
18,4.334626747937844
2,1, 1, 1, 0,16,30.00,45.00,Tuesday
7,-1.1
8,198.41305419297007
9,1.0
10,45.38251793443488
11,1.0
12,45.38251793443488
13,198.41305419297007
14,4.046956842073954
15,1.4509311947801367
16,3.4620221793962857
17,-0.7552202392361096
18,4.258393340136521
2,1, 1, 1, 0,16,45.00,60.00,Tuesday
7,-1.1
8,138.24276395716175
9,1.0
10,32.02625108222755
11,1.0
12,32.02625108222755
13,138.24276395716175
14,3.9499830634094477
15,0.581613015822535
16,3.2067517641647784
17,-0.8797011247910973
18,4.178287572870209
2,1, 1, 1, 0,17, 0.00,15.00,Tuesday
7,-1.1
8,75.73004915766056
9,1.0
10,17.762198626050539
11,1.0
12,17.762198626050539
13,75.73004915766056
14,3.8242573110810467
15,-0.6779642487541049
16,2.8899972840990246
17,-1.1338806203460763
18,4.092106717575927
2,1, 1, 1, 0,17,15.00,30.00,Tuesday
7,-1.1
8,0.0
9,0.0
10,0.0
11,0.0
12,0.0
13,0.0
14,3.649314475048723
15,-2.5189255524187295
16,2.4948043494433707
17,-1.4789922686117052
18,3.9931770922809206
2,1, 1, 1, 0,17,30.00,45.00,Tuesday
7,-1.1
8,0.0
9,0.0
10,0.0
11,0.0
12,0.0
13,0.0
14,3.599384850561256
15,-2.6584027166772388
16,2.4044538828287616
17,-1.5242771139318166
18,3.896725362528485
2,1, 1, 1, 0,17,45.00,60.00,Tuesday
7,-1.1
8,0.0
9,0.0
10,0.0
11,0.0
12,0.0
13,0.0
14,3.5352568592865878
15,-2.855951833254204
16,2.347396265988664
17,-1.5734975380992183
18,3.8158342993631679
2,1, 1, 1, 0,18, 0.00,15.00,Tuesday
7,-1.25
8,0.0
9,0.0
10,0.0
11,0.0
12,0.0
13,0.0
14,3.4828513248719097
15,-3.0029326928653825
16,2.2633398083153226
17,-1.7149744638500693
18,3.751984970670378
2,1, 1, 1, 0,18,15.00,30.00,Tuesday
7,-1.4
8,0.0
9,0.0
10,0.0
11,0.0
12,0.0
13,0.0
14,3.4355399006171765
15,-3.1552980669350827
16,2.1937179755378795
17,-1.844463212047799
18,3.7006965937337865
2,1, 1, 1, 0,18,30.00,45.00,Tuesday
7,-1.5499999999999999
8,0.0
9,0.0
10,0.0
11,0.0
12,0.0
13,0.0
14,3.392610888316777
15,-3.3070846947261609
16,2.128207804755448
17,-1.9735393914084512
18,3.656871977878203
2,1, 1, 1, 0,18,45.00,60.00,Tuesday
7,-1.7
8,0.0
9,0.0
10,0.0
11,0.0
12,0.0
13,0.0
14,3.351982805281605
15,-3.459041463578934
16,2.0658331962954437
17,-2.1016536244036958
18,3.617019232665288
2,1, 1, 1, 0,19, 0.00,15.00,Tuesday
7,-1.825
8,0.0
9,0.0
10,0.0
11,0.0
12,0.0
13,0.0
14,3.3383621895206678
15,-3.3016262055435536
16,2.0263586678152025
17,-2.152909788071497
18,3.582991946736288
2,1, 1, 1, 0,19,15.00,30.00,Tuesday
7,-1.9500000000000002
8,0.0
9,0.0
10,0.0
11,0.0
12,0.0
13,0.0
14,3.3250439301759679
15,-3.2267382725538735
16,1.9897199372364867
17,-2.2240741080646559
18,3.5565108490553389
2,1, 1, 1, 0,19,30.00,45.00,Tuesday
7,-2.075
8,0.0
9,0.0
10,0.0
11,0.0
12,0.0
13,0.0
14,3.3048107061377949
15,-3.2983652029269785
16,1.9511273712264484
17,-2.3185546417595335
18,3.5357462778272135
2,1, 1, 1, 0,19,45.00,60.00,Tuesday
7,-2.2
8,0.0
9,0.0
10,0.0
11,0.0
12,0.0
13,0.0
14,3.288820757586007
15,-3.268947504057615
16,1.9163576425685279
17,-2.4019389264404369
18,3.5176110888467639
2,1, 1, 1, 0,20, 0.00,15.00,Tuesday
7,-1.9250000000000003
8,0.0
9,0.0
10,0.0
11,0.0
12,0.0
13,0.0
14,3.289254402007473
15,-2.9659846873168456
16,1.9692430304290838
17,-2.179749069877289
18,3.5022915924211168
2,1, 1, 1, 0,20,15.00,30.00,Tuesday
7,-1.6500000000000002
8,0.0
9,0.0
10,0.0
11,0.0
12,0.0
13,0.0
14,3.289820257207594
15,-2.6662105200011316
16,2.022686618527473
17,-1.9474582710232085
18,3.4901553437787418
2,1, 1, 1, 0,20,30.00,45.00,Tuesday
7,-1.375
8,0.0
9,0.0
10,0.0
11,0.0
12,0.0
13,0.0
14,3.2928497879177129
15,-2.367783165987131
16,2.077619287138532
17,-1.7132570067562938
18,3.4809028711449865
2,1, 1, 1, 0,20,45.00,60.00,Tuesday
7,-1.1
8,0.0
9,0.0
10,0.0
11,0.0
12,0.0
13,0.0
14,3.296514100585288
15,-2.0707275492268799
16,2.134716086087735
17,-1.4772920486520889
18,3.4738490352736988
2,1, 1, 1, 0,21, 0.00,15.00,Tuesday
7,-1.25
8,0.0
9,0.0
10,0.0
11,0.0
12,0.0
13,0.0
14,3.255303834810131
15,-2.3591680872171265
16,2.0834217699778039
17,-1.6141403146880294
18,3.4622612585385958
2,1, 1, 1, 0,21,15.00,30.00,Tuesday
7,-1.4
8,0.0
9,0.0
10,0.0
11,0.0
12,0.0
13,0.0
14,3.215747781865167
15,-2.5795476494101785
16,2.0285045691010739
17,-1.7454687008330439
18,3.4413765496381156
2,1, 1, 1, 0,21,30.00,45.00,Tuesday
7,-1.5499999999999999
8,0.0
9,0.0
10,0.0
11,0.0
12,0.0
13,0.0
14,3.1621136973377128
15,-2.9334864824480149
16,1.9649098759343815
17,-1.8967088613342185
18,3.4099595645668749
2,1, 1, 1, 0,21,45.00,60.00,Tuesday
7,-1.7
8,0.0
9,0.0
10,0.0
11,0.0
12,0.0
13,0.0
14,3.103081454771698
15,-3.3963509502749669
16,1.888120641537455
17,-2.072157657532614
18,3.3698851665761238
2,1, 1, 1, 0,22, 0.00,15.00,Tuesday
7,-1.5499999999999999
8,0.0
9,0.0
10,0.0
11,0.0
12,0.0
13,0.0
14,3.1165869439681428
15,-2.8958450036383249
16,1.9053561079931
17,-1.9129178981575024
18,3.335098204639835
2,1, 1, 1, 0,22,15.00,30.00,Tuesday
7,-1.4
8,0.0
9,0.0
10,0.0
11,0.0
12,0.0
13,0.0
14,3.1211979913189809
15,-2.5568821127450058
16,1.9390178395091198
17,-1.763441818690012
18,3.3133723389589195
2,1, 1, 1, 0,22,30.00,45.00,Tuesday
7,-1.25
8,0.0
9,0.0
10,0.0
11,0.0
12,0.0
13,0.0
14,3.1236241869741718
15,-2.332851230668191
16,1.9690160536854365
17,-1.631186895195981
18,3.3027202691696639
2,1, 1, 1, 0,22,45.00,60.00,Tuesday
7,-1.1
8,0.0
9,0.0
10,0.0
11,0.0
12,0.0
13,0.0
14,3.1299428915027476
15,-2.043226742106689
16,2.00748623669233
17,-1.4810468810348994
18,3.298055918582127
2,1, 1, 1, 0,23, 0.00,15.00,Tuesday
7,-1.25
8,0.0
9,0.0
10,0.0
11,0.0
12,0.0
13,0.0
14,3.088960602100001
15,-2.3468198395362167
16,1.9198918816156266
17,-1.7532812643160015
18,3.2890214600769904
2,1, 1, 1, 0,23,15.00,30.00,Tuesday
7,-1.4
8,0.0
9,0.0
10,0.0
11,0.0
12,0.0
13,0.0
14,3.0506876671181186
15,-2.651346532789021
16,1.8221117420409883
17,-2.0436858564041815
18,3.270105118059746
2,1, 1, 1, 0,23,30.00,45.00,Tuesday
7,-1.5499999999999999
8,0.0
9,0.0
10,0.0
11,0.0
12,0.0
13,0.0
14,3.0082709757405539
15,-2.956513929237527
16,1.7233557383607945
17,-2.334223883515847
18,3.2419662329697127
2,1, 1, 1, 0,23,45.00,60.00,Tuesday
7,-1.7
8,0.0
9,0.0
10,0.0
11,0.0
12,0.0
13,0.0
14,2.9620809667199539
15,-3.262027817480218
16,1.6211749648007868
17,-2.625278854637429
18,3.20734168628112
2,1, 1, 1, 0,24, 0.00,15.00,Tuesday
7,-1.7
8,0.0
9,0.0
10,0.0
11,0.0
12,0.0
13,0.0
14,2.933625714255926
15,-3.315832051674626
16,1.5792567540764822
17,-2.6853834682432309
18,3.171775712173806
2,1, 1, 1, 0,24,15.00,30.00,Tuesday
7,-1.7
8,0.0
9,0.0
10,0.0
11,0.0
12,0.0
13,0.0
14,2.902076570081275
15,-3.3703937328603916
16,1.5414077954955588
17,-2.744534173453303
18,3.1383581687485835
2,1, 1, 1, 0,24,30.00,45.00,Tuesday
7,-1.7
8,0.0
9,0.0
10,0.0
11,0.0
12,0.0
13,0.0
14,2.8713671875831858
15,-3.424811778025105
16,1.5030144589787256
17,-2.803861453549075
18,3.1072474429155139
2,1, 1, 1, 0,24,45.00,60.00,Tuesday
7,-1.7
8,0.0
9,0.0
10,0.0
11,0.0
12,0.0
13,0.0
14,2.8413399860169625
15,-3.479230956054612
16,1.465367073321545
17,-2.862948966777651
18,3.077564928741645
End of Data
 Number of Records Written=        1152
