Program Version,EnergyPlus, Version 9.5.0-de239b2e5f, YMD=2022.11.01 22:08
1,5,Environment Title[],Latitude[deg],Longitude[deg],Time Zone[],Elevation[m]
2,8,Day of Simulation[],Month[],Day of Month[],DST Indicator[1=yes 0=no],Hour[],StartMinute[],EndMinute[],DayType
3,5,Cumulative Day of Simulation[],Month[],Day of Month[],DST Indicator[1=yes 0=no],DayType  ! When Daily Report Variables Requested
4,2,Cumulative Days of Simulation[],Month[]  ! When Monthly Report Variables Requested
5,1,Cumulative Days of Simulation[] ! When Run Period Report Variables Requested
6,1,Calendar Year of Simulation[] ! When Annual Report Variables Requested
7,1,Environment,Site Outdoor Air Drybulb Temperature [C] !TimeStep
8,1,ZONE ONE,Zone Windows Total Transmitted Solar Radiation Rate [W] !TimeStep
9,1,ZN001:WALL001,Surface Outside Face Sunlit Fraction [] !TimeStep
10,1,ZN001:WALL001,Surface Outside Face Incident Solar Radiation Rate per Area [W/m2] !TimeStep
11,1,ZN001:WALL001:WIN001,Surface Outside Face Sunlit Fraction [] !TimeStep
12,1,ZN001:WALL001:WIN001,Surface Outside Face Incident Solar Radiation Rate per Area [W/m2] !TimeStep
13,1,ZN001:WALL001:WIN001,Surface Window Transmitted Solar Radiation Rate [W] !TimeStep
14,1,ZN001:WALL001,Surface Inside Face Temperature [C] !TimeStep
15,1,ZN001:WALL001,Surface Outside Face Temperature [C] !TimeStep
16,1,ZN001:WALL001:WIN001,Surface Inside Face Temperature [C] !TimeStep
17,1,ZN001:WALL001:WIN001,Surface Outside Face Temperature [C] !TimeStep
18,1,ZONE ONE,Zone Mean Air Temperature [C] !TimeStep
End of Data Dictionary
1,RUN PERIOD 1,  41.98, -87.92,  -6.00, 201.00
2,1, 1, 1, 0, 1, 0.00,15.00,Tuesday
7,-4.324999999999999
8,0.0
9,0.0
10,0.0
11,0.0
12,0.0
13,0.0
14,3.0464443471769284
15,-5.94846669599335
16,1.2253052934504468
17,-4.867614432471441
18,3.4331118162019136
2,1, 1, 1, 0, 1,15.00,30.00,Tuesday
7,-6.949999999999999
8,0.0
9,0.0
10,0.0
11,0.0
12,0.0
13,0.0
14,2.869062433024903
15,-8.416291968073017
16,0.6122970606143099
17,-6.9553000126203419
18,3.344272514155975
2,1, 1, 1, 0, 1,30.00,45.00,Tuesday
7,-9.575
8,0.0
9,0.0
10,0.0
11,0.0
12,0.0
13,0.0
14,2.6718933875055397
15,-10.892298357443656
16,-0.004352932895471895
17,-9.04962688442697
18,3.2227858761051388
2,1, 1, 1, 0, 1,45.00,60.00,Tuesday
7,-12.2
8,0.0
9,0.0
10,0.0
11,0.0
12,0.0
13,0.0
14,2.458914455385843
15,-13.374885344774535
16,-0.6349587201610234
17,-11.151966892472729
18,3.078126171703484
2,1, 1, 1, 0, 2, 0.00,15.00,Tuesday
7,-12.075
8,0.0
9,0.0
10,0.0
11,0.0
12,0.0
13,0.0
14,2.3992284724939645
15,-13.176300027282702
16,-0.6986100168671214
17,-11.000977787526154
18,2.94740137110158
2,1, 1, 1, 0, 2,15.00,30.00,Tuesday
7,-11.95
8,0.0
9,0.0
10,0.0
11,0.0
12,0.0
13,0.0
14,2.3252058105876145
15,-12.99906587666839
16,-0.7243846321091496
17,-10.854079769498526
18,2.8482923336556835
2,1, 1, 1, 0, 2,30.00,45.00,Tuesday
7,-11.825
8,0.0
9,0.0
10,0.0
11,0.0
12,0.0
13,0.0
14,2.268197763846943
15,-12.820645639562864
16,-0.7449865033185006
17,-10.706803834131847
18,2.7761436248856627
2,1, 1, 1, 0, 2,45.00,60.00,Tuesday
7,-11.7
8,0.0
9,0.0
10,0.0
11,0.0
12,0.0
13,0.0
14,2.222523222756483
15,-12.642291191603509
16,-0.7529498091926143
17,-10.556868674539033
18,2.7202454437021497
2,1, 1, 1, 0, 3, 0.00,15.00,Tuesday
7,-11.549999999999999
8,0.0
9,0.0
10,0.0
11,0.0
12,0.0
13,0.0
14,2.1785648688894856
15,-12.517285963473242
16,-0.7524206085601009
17,-10.425219142033825
18,2.67162193104918
2,1, 1, 1, 0, 3,15.00,30.00,Tuesday
7,-11.399999999999999
8,0.0
9,0.0
10,0.0
11,0.0
12,0.0
13,0.0
14,2.1379927417885606
15,-12.393693437804373
16,-0.7527668283418052
17,-10.285066929418236
18,2.6256252226487519
2,1, 1, 1, 0, 3,30.00,45.00,Tuesday
7,-11.25
8,0.0
9,0.0
10,0.0
11,0.0
12,0.0
13,0.0
14,2.098410575873626
15,-12.271682024147842
16,-0.7516713281617058
17,-10.144079636796392
18,2.5807652363776159
2,1, 1, 1, 0, 3,45.00,60.00,Tuesday
7,-11.1
8,0.0
9,0.0
10,0.0
11,0.0
12,0.0
13,0.0
14,2.059362552695325
15,-12.15131131775673
16,-0.7499416021769321
17,-10.003246061531855
18,2.5367748424727929
2,1, 1, 1, 0, 4, 0.00,15.00,Tuesday
7,-11.1
8,0.0
9,0.0
10,0.0
11,0.0
12,0.0
13,0.0
14,2.0166835538448755
15,-12.121342082058236
16,-0.7967687230256502
17,-10.02203757426696
18,2.4927867723149559
2,1, 1, 1, 0, 4,15.00,30.00,Tuesday
7,-11.1
8,0.0
9,0.0
10,0.0
11,0.0
12,0.0
13,0.0
14,1.9744086368953247
15,-12.092532886986021
16,-0.8380762673641584
17,-10.047903768720858
18,2.4484669989840555
2,1, 1, 1, 0, 4,30.00,45.00,Tuesday
7,-11.1
8,0.0
9,0.0
10,0.0
11,0.0
12,0.0
13,0.0
14,1.9319814739683599
15,-12.065329282719093
16,-0.8786497347280147
17,-10.073669037539844
18,2.4039079102684046
2,1, 1, 1, 0, 4,45.00,60.00,Tuesday
7,-11.1
8,0.0
9,0.0
10,0.0
11,0.0
12,0.0
13,0.0
14,1.8894904301384737
15,-12.039598236280276
16,-0.9190230187608677
17,-10.098687354562685
18,2.3592881521854549
2,1, 1, 1, 0, 5, 0.00,15.00,Tuesday
7,-10.975
8,0.0
9,0.0
10,0.0
11,0.0
12,0.0
13,0.0
14,1.8526759389394978
15,-11.917442921035985
16,-0.9241717012959043
17,-10.010759266135779
18,2.3157343249093245
2,1, 1, 1, 0, 5,15.00,30.00,Tuesday
7,-10.85
8,0.0
9,0.0
10,0.0
11,0.0
12,0.0
13,0.0
14,1.8160545811449889
15,-11.795375883041137
16,-0.9311999457388538
17,-9.914971763026188
18,2.2737189208401684
2,1, 1, 1, 0, 5,30.00,45.00,Tuesday
7,-10.725
8,0.0
9,0.0
10,0.0
11,0.0
12,0.0
13,0.0
14,1.780406225973052
15,-11.673287780665764
16,-0.9379700482019189
17,-9.818348022792918
18,2.2330398491620846
2,1, 1, 1, 0, 5,45.00,60.00,Tuesday
7,-10.6
8,0.0
9,0.0
10,0.0
11,0.0
12,0.0
13,0.0
14,1.7455782908997069
15,-11.55120948951129
16,-0.943980725583458
17,-9.721496148117183
18,2.1933402715316236
2,1, 1, 1, 0, 6, 0.00,15.00,Tuesday
7,-10.6
8,0.0
9,0.0
10,0.0
11,0.0
12,0.0
13,0.0
14,1.7035528880122
15,-11.552059507108071
16,-0.9767318232030675
17,-9.724170024690466
18,2.153134845240478
2,1, 1, 1, 0, 6,15.00,30.00,Tuesday
7,-10.6
8,0.0
9,0.0
10,0.0
11,0.0
12,0.0
13,0.0
14,1.6621093968127679
15,-11.552831055285332
16,-1.0138829179857112
17,-9.727911852747525
18,2.111542380594411
2,1, 1, 1, 0, 6,30.00,45.00,Tuesday
7,-10.6
8,0.0
9,0.0
10,0.0
11,0.0
12,0.0
13,0.0
14,1.6201347087015266
15,-11.553648981635142
16,-1.0484678081596713
17,-9.734688334010457
18,2.0688186464704407
2,1, 1, 1, 0, 6,45.00,60.00,Tuesday
7,-10.6
8,0.0
9,0.0
10,0.0
11,0.0
12,0.0
13,0.0
14,1.5777975150505062
15,-11.554465617297803
16,-1.083283270226957
17,-9.741921153309704
18,2.025504786044665
2,1, 1, 1, 0, 7, 0.00,15.00,Tuesday
7,-10.6
8,0.0
9,0.0
10,0.0
11,0.0
12,0.0
13,0.0
14,1.5375723603254657
15,-11.529742249250943
16,-1.122537879233107
17,-9.762637866638102
18,1.982324450696183
2,1, 1, 1, 0, 7,15.00,30.00,Tuesday
7,-10.6
8,0.0
9,0.0
10,0.0
11,0.0
12,0.0
13,0.0
14,1.497193950664291
15,-11.506300388877868
16,-1.1601820523403035
17,-9.783354019617946
18,1.9396481183773769
2,1, 1, 1, 0, 7,30.00,45.00,Tuesday
7,-10.6
8,0.0
9,0.0
10,0.0
11,0.0
12,0.0
13,0.0
14,1.4570912373039134
15,-11.484047306343458
16,-1.1974761004297534
17,-9.80348714735294
18,1.8974576884305106
2,1, 1, 1, 0, 7,45.00,60.00,Tuesday
7,-10.6
8,0.0
9,0.0
10,0.0
11,0.0
12,0.0
13,0.0
14,1.4172760249680963
15,-11.4629129525045
16,-1.2343417104427772
17,-9.82293060896302
18,1.8556307129834247
2,1, 1, 1, 0, 8, 0.00,15.00,Tuesday
7,-10.45
8,0.0
9,0.0
10,0.0
11,0.0
12,0.0
13,0.0
14,1.3766506110937909
15,-11.41469642917675
16,-1.2503254018546386
17,-9.776903863787652
18,1.8137670253409307
2,1, 1, 1, 0, 8,15.00,30.00,Tuesday
7,-10.3
8,104.65697298177773
9,1.0
10,22.819555959623899
11,1.0
12,22.819555959623899
13,104.65697298177773
14,1.446945412926906
15,-9.741610488645654
16,-0.8880024240532976
17,-9.411654738524192
18,1.7878400896553602
2,1, 1, 1, 0, 8,30.00,45.00,Tuesday
7,-10.15
8,514.5947646173331
9,1.0
10,109.75755355442667
11,1.0
12,109.75755355442667
13,514.5947646173331
14,1.8189629511629373
15,-3.37865265613697
16,0.6169190629555601
17,-8.130011261775167
18,1.8217870138937414
2,1, 1, 1, 0, 8,45.00,60.00,Tuesday
7,-10.0
8,937.8421183150499
9,1.0
10,195.8764694434918
11,1.0
12,195.8764694434918
13,937.8421183150499
14,2.3171699505942455
15,3.140683480363189
16,2.300291108270244
17,-6.839863994225766
18,1.919936965976857
2,1, 1, 1, 0, 9, 0.00,15.00,Tuesday
7,-9.725
8,1361.7063589690347
9,1.0
10,278.97248314719988
11,1.0
12,278.97248314719988
13,1361.7063589690347
14,2.654209819091241
15,8.284682086256023
16,3.8335976967841818
17,-5.716440017838522
18,2.068289004433791
2,1, 1, 1, 0, 9,15.00,30.00,Tuesday
7,-9.45
8,1810.5826969054077
9,1.0
10,364.91995730569456
11,1.0
12,364.91995730569456
13,1810.5826969054077
14,3.053929819936852
15,13.370249057890942
16,5.343350197890743
17,-4.602759650023472
18,2.2586321847721688
2,1, 1, 1, 0, 9,30.00,45.00,Tuesday
7,-9.175
8,2110.2648628097065
9,1.0
10,420.35879993239237
11,1.0
12,420.35879993239237
13,2110.2648628097065
14,3.3268088974359357
15,16.128304002008976
16,6.345535803136158
17,-3.919186108136387
18,2.471249913175617
2,1, 1, 1, 0, 9,45.00,60.00,Tuesday
7,-8.9
8,2422.1606877060787
9,1.0
10,478.00138373643099
11,1.0
12,478.00138373643099
13,2422.1606877060787
14,3.648885811006528
15,19.123728833829188
16,7.3480329190940669
17,-3.210718722415436
18,2.6962082648068774
2,1, 1, 1, 0,10, 0.00,15.00,Tuesday
7,-8.350000000000002
8,2741.38886711697
9,1.0
10,536.9185644770597
11,1.0
12,536.9185644770597
13,2741.38886711697
14,3.9134437312199905
15,20.242883261641447
16,8.37598859495671
17,-2.4767788102991519
18,2.9347600737527199
2,1, 1, 1, 0,10,15.00,30.00,Tuesday
7,-7.800000000000001
8,3072.140808331943
9,1.0
10,598.0969199229219
11,1.0
12,598.0969199229219
13,3072.140808331943
14,4.20327551202487
15,21.497075481216475
16,9.421394202873387
17,-1.7469457265414122
18,3.1940244550832466
2,1, 1, 1, 0,10,30.00,45.00,Tuesday
7,-7.25
8,3291.119319194777
9,1.0
10,637.6133352894237
11,1.0
12,637.6133352894237
13,3291.119319194777
14,4.424031031347142
15,21.557933577206666
16,10.160104498773876
17,-1.2461826224135849
18,3.459719278732455
2,1, 1, 1, 0,10,45.00,60.00,Tuesday
7,-6.7
8,3507.0122149757746
9,1.0
10,676.6412284283772
11,1.0
12,676.6412284283772
13,3507.0122149757746
14,4.664701307745649
15,21.719022229741257
16,10.873999299390335
17,-0.7493765088228201
18,3.7206763916921314
2,1, 1, 1, 0,11, 0.00,15.00,Tuesday
7,-6.275
8,3719.027779382333
9,1.0
10,715.0112779846514
11,1.0
12,715.0112779846514
13,3719.027779382333
14,4.981900228499829
15,23.816592923951807
16,11.628438777982638
17,-0.013199992331237809
18,3.979360682083638
2,1, 1, 1, 0,11,15.00,30.00,Tuesday
7,-5.85
8,3926.017390730458
9,1.0
10,752.5077794605232
11,1.0
12,752.5077794605232
13,3926.017390730458
14,5.286416043677318
15,25.75161846001983
16,12.372579905202486
17,0.7015858988265222
18,4.240291917546709
2,1, 1, 1, 0,11,30.00,45.00,Tuesday
7,-5.425
8,3867.254711573664
9,1.0
10,742.5988714321785
11,1.0
12,742.5988714321785
13,3867.254711573664
14,5.461923534023232
15,25.603483046349785
16,12.488810819804428
17,0.9819518870748993
18,4.487006267921929
2,1, 1, 1, 0,11,45.00,60.00,Tuesday
7,-5.0
8,3781.808150295098
9,1.0
10,727.8169025450712
11,1.0
12,727.8169025450712
13,3781.808150295098
14,5.633039945665524
15,25.37421221869989
16,12.51582957417645
17,1.2279988177929227
18,4.707671097217277
2,1, 1, 1, 0,12, 0.00,15.00,Tuesday
7,-4.575
8,3634.092344587768
9,1.0
10,700.3759009170325
11,1.0
12,700.3759009170325
13,3634.092344587768
14,5.750307145285147
15,24.63155023992119
16,12.37735272260744
17,1.4056286230197089
18,4.896159455931282
2,1, 1, 1, 0,12,15.00,30.00,Tuesday
7,-4.15
8,3523.1805384604565
9,1.0
10,681.6705029034473
11,1.0
12,681.6705029034473
13,3523.1805384604565
14,5.888032162090971
15,24.301039216740447
16,12.335584984829211
17,1.6593817967443557
18,5.059965588121943
2,1, 1, 1, 0,12,30.00,45.00,Tuesday
7,-3.7249999999999998
8,3090.9079012882368
9,1.0
10,602.01865277251
11,1.0
12,602.01865277251
13,3090.9079012882368
14,5.803805441654537
15,21.272683758624124
16,11.480558839096375
17,1.3849912622989678
18,5.179284437291741
2,1, 1, 1, 0,12,45.00,60.00,Tuesday
7,-3.3
8,2523.079864270406
9,1.0
10,493.55004396206007
11,1.0
12,493.55004396206007
13,2523.079864270406
14,5.618003569007887
15,17.09413813795883
16,10.14550721254193
17,0.8352276084317509
18,5.232927327747352
2,1, 1, 1, 0,13, 0.00,15.00,Tuesday
7,-3.0249999999999996
8,2079.6739314450089
9,1.0
10,412.335026418112
11,1.0
12,412.335026418112
13,2079.6739314450089
14,5.486600192051357
15,14.249580742884314
16,9.098519247937987
17,0.4587733915762442
18,5.234782283968938
2,1, 1, 1, 0,13,15.00,30.00,Tuesday
7,-2.75
8,1520.1342619520045
9,1.0
10,305.94037763660148
11,1.0
12,305.94037763660148
13,1520.1342619520045
14,5.2065462237066539
15,10.076111022490054
16,7.648123281807102
17,-0.1693796212973666
18,5.193742231707395
2,1, 1, 1, 0,13,30.00,45.00,Tuesday
7,-2.475
8,1386.3085600904224
9,1.0
10,281.0763483922329
11,1.0
12,281.0763483922329
13,1386.3085600904224
14,5.188626980721719
15,9.56200545478171
16,7.312655980229408
17,-0.07326409638557152
18,5.140155518538372
2,1, 1, 1, 0,13,45.00,60.00,Tuesday
7,-2.2
8,1255.2684104894359
9,1.0
10,256.7721209415886
11,1.0
12,256.7721209415886
13,1255.2684104894359
14,5.157171426069775
15,8.956104225623916
16,7.042879062387897
17,0.04733868150094622
18,5.094768307614443
2,1, 1, 1, 0,14, 0.00,15.00,Tuesday
7,-1.9250000000000003
8,1024.488242160371
9,1.0
10,210.73276284570657
11,1.0
12,210.73276284570657
13,1024.488242160371
14,5.037485384576285
15,7.407740236830399
16,6.419244309033729
17,-0.07562328388883089
18,5.0538212797909589
2,1, 1, 1, 0,14,15.00,30.00,Tuesday
7,-1.6500000000000002
8,908.4451375528007
9,1.0
10,189.38488290342594
11,1.0
12,189.38488290342594
13,908.4451375528007
14,5.010599126821782
15,7.001622198882904
16,6.140584705697734
17,0.02156349205239394
18,5.0177464359572039
2,1, 1, 1, 0,14,30.00,45.00,Tuesday
7,-1.375
8,866.8108248186013
9,1.0
10,179.3940297802914
11,1.0
12,179.3940297802914
13,866.8108248186013
14,5.009655318603564
15,7.123776025559293
16,6.067798054978539
17,0.2387002234488591
18,4.9882153902853709
2,1, 1, 1, 0,14,45.00,60.00,Tuesday
7,-1.1
8,824.4852038251495
9,1.0
10,169.43349014176136
11,1.0
12,169.43349014176136
13,824.4852038251495
14,5.007139111544603
15,7.221780708895717
16,5.98984336461001
17,0.45375485879833379
18,4.965384447589921
2,1, 1, 1, 0,15, 0.00,15.00,Tuesday
7,-1.1
8,867.3820808863485
9,1.0
10,178.15692317953907
11,1.0
12,178.15692317953907
13,867.3820808863485
14,5.061068376069274
15,8.037649192622992
16,6.138364801373655
17,0.5944786188635476
18,4.952160493515078
2,1, 1, 1, 0,15,15.00,30.00,Tuesday
7,-1.1
8,814.6664417921372
9,1.0
10,166.40516310952945
11,1.0
12,166.40516310952945
13,814.6664417921372
14,5.019351613705311
15,7.674229801806381
16,5.971326912216114
17,0.5190824201853275
18,4.94303958350558
2,1, 1, 1, 0,15,30.00,45.00,Tuesday
7,-1.1
8,686.0953301943459
9,1.0
10,140.8967369711617
11,1.0
12,140.8967369711617
13,686.0953301943459
14,4.920021112746903
15,6.466821065163679
16,5.542286727997521
17,0.26148335874017905
18,4.926545422141473
2,1, 1, 1, 0,15,45.00,60.00,Tuesday
7,-1.1
8,563.8880396486502
9,1.0
10,116.57355796743004
11,1.0
12,116.57355796743004
13,563.8880396486502
14,4.8104383058750399
15,5.252446864090615
16,5.100437238934717
17,-0.01056943341495753
18,4.894891196850567
2,1, 1, 1, 0,16, 0.00,15.00,Tuesday
7,-1.1
8,446.95919507925739
9,1.0
10,93.14939272689483
11,1.0
12,93.14939272689483
13,446.95919507925739
14,4.721609384060623
15,4.202974457813478
16,4.669948651186473
17,-0.21647263894482195
18,4.848474536518354
2,1, 1, 1, 0,16,15.00,30.00,Tuesday
7,-1.1
8,277.1017240053257
9,1.0
10,57.94047897402063
11,1.0
12,57.94047897402063
13,277.1017240053257
14,4.548539583593686
15,2.07454167850799
16,4.043023112737103
17,-0.5998241863260887
18,4.781837009440689
2,1, 1, 1, 0,16,30.00,45.00,Tuesday
7,-1.1
8,214.55748491043597
9,1.0
10,45.38251793443488
11,1.0
12,45.38251793443488
13,214.55748491043597
14,4.483950704030243
15,1.4598458050057029
16,3.790484568303441
17,-0.6980474884998102
18,4.7034776032531069
2,1, 1, 1, 0,16,45.00,60.00,Tuesday
7,-1.1
8,149.60537890534949
9,1.0
10,32.02625108222755
11,1.0
12,32.02625108222755
13,149.60537890534949
14,4.384900935842083
15,0.5913978067339317
16,3.5431550953943544
17,-0.8121970571906445
18,4.620725515773296
2,1, 1, 1, 0,17, 0.00,15.00,Tuesday
7,-1.1
8,81.99800159363038
9,1.0
10,17.762198626050539
11,1.0
12,17.762198626050539
13,81.99800159363038
14,4.2568907921670269
15,-0.6670098797749121
16,3.2358639447905945
17,-1.0524908197812693
18,4.533240625897636
2,1, 1, 1, 0,17,15.00,30.00,Tuesday
7,-1.1
8,0.0
9,0.0
10,0.0
11,0.0
12,0.0
13,0.0
14,4.0799378782551589
15,-2.5074292819278676
16,2.8518000870012658
17,-1.3851801980492838
18,4.433605342227865
2,1, 1, 1, 0,17,30.00,45.00,Tuesday
7,-1.1
8,0.0
9,0.0
10,0.0
11,0.0
12,0.0
13,0.0
14,4.029161292314106
15,-2.6463878700013305
16,2.760651252322873
17,-1.4286831519228827
18,4.336651507048535
2,1, 1, 1, 0,17,45.00,60.00,Tuesday
7,-1.1
8,0.0
9,0.0
10,0.0
11,0.0
12,0.0
13,0.0
14,3.96408281787371
15,-2.8429866246408195
16,2.7045650777722018
17,-1.4717177176875112
18,4.255339810038987
2,1, 1, 1, 0,18, 0.00,15.00,Tuesday
7,-1.25
8,0.0
9,0.0
10,0.0
11,0.0
12,0.0
13,0.0
14,3.9106794441362644
15,-2.990090301449079
16,2.6192245656604884
17,-1.6137266853190795
18,4.191010021263692
2,1, 1, 1, 0,18,15.00,30.00,Tuesday
7,-1.4
8,0.0
9,0.0
10,0.0
11,0.0
12,0.0
13,0.0
14,3.862391278685592
15,-3.1424624981270186
16,2.5490507388994958
17,-1.7429012079142013
18,4.139097503809295
2,1, 1, 1, 0,18,30.00,45.00,Tuesday
7,-1.5499999999999999
8,0.0
9,0.0
10,0.0
11,0.0
12,0.0
13,0.0
14,3.8184502032520628
15,-3.2942723154559028
16,2.4829127944401536
17,-1.8717868147587638
18,4.094487608643636
2,1, 1, 1, 0,18,45.00,60.00,Tuesday
7,-1.7
8,0.0
9,0.0
10,0.0
11,0.0
12,0.0
13,0.0
14,3.77676753989469
15,-3.44625211149218
16,2.419879677171764
17,-1.9996891921726388
18,4.053712719146051
2,1, 1, 1, 0,19, 0.00,15.00,Tuesday
7,-1.825
8,0.0
9,0.0
10,0.0
11,0.0
12,0.0
13,0.0
14,3.761811439250395
15,-3.290302977681227
16,2.377316618707937
17,-2.0597712955859608
18,4.018644199821745
2,1, 1, 1, 0,19,15.00,30.00,Tuesday
7,-1.9500000000000002
8,0.0
9,0.0
10,0.0
11,0.0
12,0.0
13,0.0
14,3.74714611591569
15,-3.2167082753929634
16,2.337574043075051
17,-2.138916696599381
18,3.99102955018515
2,1, 1, 1, 0,19,30.00,45.00,Tuesday
7,-2.075
8,0.0
9,0.0
10,0.0
11,0.0
12,0.0
13,0.0
14,3.725503047843108
15,-3.288690989945304
16,2.297729401470292
17,-2.2355739847168936
18,3.9690522128297465
2,1, 1, 1, 0,19,45.00,60.00,Tuesday
7,-2.2
8,0.0
9,0.0
10,0.0
11,0.0
12,0.0
13,0.0
14,3.708141212060081
15,-3.2604162010798158
16,2.2600878143078946
17,-2.325370813735617
18,3.9496203382157875
2,1, 1, 1, 0,20, 0.00,15.00,Tuesday
7,-1.9250000000000003
8,0.0
9,0.0
10,0.0
11,0.0
12,0.0
13,0.0
14,3.7072322247449409
15,-2.9577441090258795
16,2.3111184390254495
17,-2.1058440813666268
18,3.932982988445344
2,1, 1, 1, 0,20,15.00,30.00,Tuesday
7,-1.6500000000000002
8,0.0
9,0.0
10,0.0
11,0.0
12,0.0
13,0.0
14,3.7063492423800077
15,-2.6582328599581457
16,2.362750524817784
17,-1.875402267035895
18,3.9195366968963496
2,1, 1, 1, 0,20,30.00,45.00,Tuesday
7,-1.375
8,0.0
9,0.0
10,0.0
11,0.0
12,0.0
13,0.0
14,3.707136617496976
15,-2.3600510554886826
16,2.4158574845850468
17,-1.642938677809866
18,3.9088942427807198
2,1, 1, 1, 0,20,45.00,60.00,Tuesday
7,-1.1
8,0.0
9,0.0
10,0.0
11,0.0
12,0.0
13,0.0
14,3.7102570864730066
15,-2.0631980312950124
16,2.4708792335757154
17,-1.408683810799289
18,3.900483093646347
2,1, 1, 1, 0,21, 0.00,15.00,Tuesday
7,-1.25
8,0.0
9,0.0
10,0.0
11,0.0
12,0.0
13,0.0
14,3.667840888000739
15,-2.3504895937162755
16,2.4211581735213487
17,-1.5389194899515815
18,3.887548194389141
2,1, 1, 1, 0,21,15.00,30.00,Tuesday
7,-1.4
8,0.0
9,0.0
10,0.0
11,0.0
12,0.0
13,0.0
14,3.627359788162635
15,-2.570236741354963
16,2.3662828971930596
17,-1.6666841392499237
18,3.865304631592303
2,1, 1, 1, 0,21,30.00,45.00,Tuesday
7,-1.5499999999999999
8,0.0
9,0.0
10,0.0
11,0.0
12,0.0
13,0.0
14,3.572859295222316
15,-2.9226296653225729
16,2.3044906695264446
17,-1.8092442304483143
18,3.8325714783414126
2,1, 1, 1, 0,21,45.00,60.00,Tuesday
7,-1.7
8,0.0
9,0.0
10,0.0
11,0.0
12,0.0
13,0.0
14,3.5129309969723838
15,-3.383740911114673
16,2.2294528478135477
17,-1.973099839693532
18,3.79127445601454
2,1, 1, 1, 0,22, 0.00,15.00,Tuesday
7,-1.5499999999999999
8,0.0
9,0.0
10,0.0
11,0.0
12,0.0
13,0.0
14,3.525108530797955
15,-2.8853232701080779
16,2.242074685251623
17,-1.8261891218883193
18,3.755359750099553
2,1, 1, 1, 0,22,15.00,30.00,Tuesday
7,-1.4
8,0.0
9,0.0
10,0.0
11,0.0
12,0.0
13,0.0
14,3.528121209397882
15,-2.5477893309100247
16,2.272282087486701
17,-1.685384302281875
18,3.7325431011432217
2,1, 1, 1, 0,22,30.00,45.00,Tuesday
7,-1.25
8,0.0
9,0.0
10,0.0
11,0.0
12,0.0
13,0.0
14,3.5290713792519088
15,-2.3243948274694947
16,2.30018745061966
17,-1.5570686184400984
18,3.7207672127554636
2,1, 1, 1, 0,22,45.00,60.00,Tuesday
7,-1.1
8,0.0
9,0.0
10,0.0
11,0.0
12,0.0
13,0.0
14,3.5339358510634257
15,-2.0359172524290116
16,2.3354978292373405
17,-1.4135389198617646
18,3.714897258276211
2,1, 1, 1, 0,23, 0.00,15.00,Tuesday
7,-1.25
8,0.0
9,0.0
10,0.0
11,0.0
12,0.0
13,0.0
14,3.491669145449949
15,-2.339469821566403
16,2.2475298732471744
17,-1.6863108907422202
18,3.704496865170238
2,1, 1, 1, 0,23,15.00,30.00,Tuesday
7,-1.4
8,0.0
9,0.0
10,0.0
11,0.0
12,0.0
13,0.0
14,3.452421009925286
15,-2.6439956004734839
16,2.1490905081690245
17,-1.9770339432757283
18,3.6841156688636218
2,1, 1, 1, 0,23,30.00,45.00,Tuesday
7,-1.5499999999999999
8,0.0
9,0.0
10,0.0
11,0.0
12,0.0
13,0.0
14,3.40889611906634
15,-2.949179683224476
16,2.0496960848007577
17,-2.2678683697023986
18,3.6545205529663948
2,1, 1, 1, 0,23,45.00,60.00,Tuesday
7,-1.7
8,0.0
9,0.0
10,0.0
11,0.0
12,0.0
13,0.0
14,3.3615703195134114
15,-3.254707809912934
16,1.9468111562412674
17,-2.5592193381687595
18,3.618507636340656
2,1, 1, 1, 0,24, 0.00,15.00,Tuesday
7,-1.7
8,0.0
9,0.0
10,0.0
11,0.0
12,0.0
13,0.0
14,3.33188110462321
15,-3.3085491336591126
16,1.9038590737528126
17,-2.6197285733903188
18,3.5816513539256129
2,1, 1, 1, 0,24,15.00,30.00,Tuesday
7,-1.7
8,0.0
9,0.0
10,0.0
11,0.0
12,0.0
13,0.0
14,3.2990988456311949
15,-3.363131798627761
16,1.865007710997702
17,-2.679163755200136
18,3.5470180332961638
2,1, 1, 1, 0,24,30.00,45.00,Tuesday
7,-1.7
8,0.0
9,0.0
10,0.0
11,0.0
12,0.0
13,0.0
14,3.2671996317893177
15,-3.417569812625153
16,1.8256329039561479
17,-2.738759835351516
18,3.514724629368166
2,1, 1, 1, 0,24,45.00,60.00,Tuesday
7,-1.7
8,0.0
9,0.0
10,0.0
11,0.0
12,0.0
13,0.0
14,3.2360019676467486
15,-3.4720095387834606
16,1.787030195016655
17,-2.798107430860796
18,3.48386474459977
End of Data
 Number of Records Written=        1152
