Program Version,EnergyPlus, Version 9.5.0-de239b2e5f, YMD=2022.11.01 22:08
1,5,Environment Title[],Latitude[deg],Longitude[deg],Time Zone[],Elevation[m]
2,8,Day of Simulation[],Month[],Day of Month[],DST Indicator[1=yes 0=no],Hour[],StartMinute[],EndMinute[],DayType
3,5,Cumulative Day of Simulation[],Month[],Day of Month[],DST Indicator[1=yes 0=no],DayType  ! When Daily Report Variables Requested
4,2,Cumulative Days of Simulation[],Month[]  ! When Monthly Report Variables Requested
5,1,Cumulative Days of Simulation[] ! When Run Period Report Variables Requested
6,1,Calendar Year of Simulation[] ! When Annual Report Variables Requested
7,1,Environment,Site Outdoor Air Drybulb Temperature [C] !TimeStep
8,1,ZONE ONE,Zone Windows Total Transmitted Solar Radiation Rate [W] !TimeStep
9,1,ZN001:WALL001,Surface Outside Face Sunlit Fraction [] !TimeStep
10,1,ZN001:WALL001,Surface Outside Face Incident Solar Radiation Rate per Area [W/m2] !TimeStep
11,1,ZN001:WALL001:WIN001,Surface Outside Face Sunlit Fraction [] !TimeStep
12,1,ZN001:WALL001:WIN001,Surface Outside Face Incident Solar Radiation Rate per Area [W/m2] !TimeStep
13,1,ZN001:WALL001:WIN001,Surface Window Transmitted Solar Radiation Rate [W] !TimeStep
14,1,ZN001:WALL001,Surface Inside Face Temperature [C] !TimeStep
15,1,ZN001:WALL001,Surface Outside Face Temperature [C] !TimeStep
16,1,ZN001:WALL001:WIN001,Surface Inside Face Temperature [C] !TimeStep
17,1,ZN001:WALL001:WIN001,Surface Outside Face Temperature [C] !TimeStep
18,1,ZONE ONE,Zone Mean Air Temperature [C] !TimeStep
End of Data Dictionary
1,RUN PERIOD 1,  41.98, -87.92,  -6.00, 201.00
2,1, 1, 1, 0, 1, 0.00,15.00,Tuesday
7,-4.324999999999999
8,0.0
9,0.0
10,0.0
11,0.0
12,0.0
13,0.0
14,5.361716343920851
15,-5.906268800418518
16,3.1322504128243056
17,-4.475611205837254
18,5.807985828933323
2,1, 1, 1, 0, 1,15.00,30.00,Tuesday
7,-6.949999999999999
8,0.0
9,0.0
10,0.0
11,0.0
12,0.0
13,0.0
14,5.180537192401077
15,-8.373792462763039
16,2.525766338159542
17,-6.563226136112462
18,5.711673047848479
2,1, 1, 1, 0, 1,30.00,45.00,Tuesday
7,-9.575
8,0.0
9,0.0
10,0.0
11,0.0
12,0.0
13,0.0
14,4.979446867078958
15,-10.849311387454137
16,1.9136788128427043
17,-8.65726855948526
18,5.58339497324608
2,1, 1, 1, 0, 1,45.00,60.00,Tuesday
7,-12.2
8,0.0
9,0.0
10,0.0
11,0.0
12,0.0
13,0.0
14,4.762495913402064
15,-13.33144423054089
16,1.2869767074092807
17,-10.759047320748778
18,5.432821412132066
2,1, 1, 1, 0, 2, 0.00,15.00,Tuesday
7,-12.075
8,0.0
9,0.0
10,0.0
11,0.0
12,0.0
13,0.0
14,4.6955615796297389
15,-13.132514929675479
16,1.2187408922542887
17,-10.602568504359113
18,5.2970202881755858
2,1, 1, 1, 0, 2,15.00,30.00,Tuesday
7,-11.95
8,0.0
9,0.0
10,0.0
11,0.0
12,0.0
13,0.0
14,4.6149265766582039
15,-12.95541960740015
16,1.186192599793685
17,-10.457422438471497
18,5.193095922639824
2,1, 1, 1, 0, 2,30.00,45.00,Tuesday
7,-11.825
8,0.0
9,0.0
10,0.0
11,0.0
12,0.0
13,0.0
14,4.551444043184027
15,-12.777158678428507
16,1.159202464277712
17,-10.311877811838145
18,5.115778297735026
2,1, 1, 1, 0, 2,45.00,60.00,Tuesday
7,-11.7
8,0.0
9,0.0
10,0.0
11,0.0
12,0.0
13,0.0
14,4.499176767720422
15,-12.598974784665579
16,1.1448953638566764
17,-10.163685658331986
18,5.054101079400914
2,1, 1, 1, 0, 3, 0.00,15.00,Tuesday
7,-11.549999999999999
8,0.0
9,0.0
10,0.0
11,0.0
12,0.0
13,0.0
14,4.448624548160509
15,-12.472933745641037
16,1.1408677916223269
17,-10.027655888193579
18,4.9991736011785579
2,1, 1, 1, 0, 3,15.00,30.00,Tuesday
7,-11.399999999999999
8,0.0
9,0.0
10,0.0
11,0.0
12,0.0
13,0.0
14,4.4012176823805009
15,-12.348261520757806
16,1.1318406991536563
17,-9.872483187561955
18,4.9464776448379939
2,1, 1, 1, 0, 3,30.00,45.00,Tuesday
7,-11.25
8,0.0
9,0.0
10,0.0
11,0.0
12,0.0
13,0.0
14,4.3547753090596699
15,-12.225118558929755
16,1.1313768811577348
17,-9.73545819299244
18,4.894787599297819
2,1, 1, 1, 0, 3,45.00,60.00,Tuesday
7,-11.1
8,0.0
9,0.0
10,0.0
11,0.0
12,0.0
13,0.0
14,4.308742846809576
15,-12.103555818678377
16,1.1247095534309324
17,-9.580720254344783
18,4.843872887496709
2,1, 1, 1, 0, 4, 0.00,15.00,Tuesday
7,-11.1
8,0.0
9,0.0
10,0.0
11,0.0
12,0.0
13,0.0
14,4.259058965500103
15,-12.075088265848369
16,1.0732725680204567
17,-9.615677976720406
18,4.792899516378989
2,1, 1, 1, 0, 4,15.00,30.00,Tuesday
7,-11.1
8,0.0
9,0.0
10,0.0
11,0.0
12,0.0
13,0.0
14,4.209753112168936
15,-12.047716940240374
16,1.0248630057179185
17,-9.649859995440068
18,4.741530411976591
2,1, 1, 1, 0, 4,30.00,45.00,Tuesday
7,-11.1
8,0.0
9,0.0
10,0.0
11,0.0
12,0.0
13,0.0
14,4.160279625505124
15,-12.02188143961007
16,0.976819979977904
17,-9.683136315810259
18,4.689870107363732
2,1, 1, 1, 0, 4,45.00,60.00,Tuesday
7,-11.1
8,0.0
9,0.0
10,0.0
11,0.0
12,0.0
13,0.0
14,4.110736762600961
15,-11.99745092455348
16,0.9289686827398782
17,-9.715427143355612
18,4.638122678482659
2,1, 1, 1, 0, 5, 0.00,15.00,Tuesday
7,-10.975
8,0.0
9,0.0
10,0.0
11,0.0
12,0.0
13,0.0
14,4.0668276678349459
15,-11.875465702102542
16,0.9175578609323338
17,-9.628885761927336
18,4.587480633636067
2,1, 1, 1, 0, 5,15.00,30.00,Tuesday
7,-10.85
8,0.0
9,0.0
10,0.0
11,0.0
12,0.0
13,0.0
14,4.023129754951297
15,-11.753553895640915
16,0.9040571773718966
17,-9.534344883068684
18,4.538428041390907
2,1, 1, 1, 0, 5,30.00,45.00,Tuesday
7,-10.725
8,0.0
9,0.0
10,0.0
11,0.0
12,0.0
13,0.0
14,3.980449210358765
15,-11.631619799878657
16,0.8908349065537209
17,-9.43895899722122
18,4.490742678630656
2,1, 1, 1, 0, 5,45.00,60.00,Tuesday
7,-10.6
8,0.0
9,0.0
10,0.0
11,0.0
12,0.0
13,0.0
14,3.938618035556856
15,-11.509695246287166
16,0.8784066095132062
17,-9.343338540383684
18,4.444050924547482
2,1, 1, 1, 0, 6, 0.00,15.00,Tuesday
7,-10.6
8,0.0
9,0.0
10,0.0
11,0.0
12,0.0
13,0.0
14,3.8897623013568416
15,-11.510655979809796
16,0.8369297556592983
17,-9.344297827856736
18,4.396754958345242
2,1, 1, 1, 0, 6,15.00,30.00,Tuesday
7,-10.6
8,0.0
9,0.0
10,0.0
11,0.0
12,0.0
13,0.0
14,3.8415380747416538
15,-11.511558709099429
16,0.796477309551733
17,-9.351956505982003
18,4.3481416746003529
2,1, 1, 1, 0, 6,30.00,45.00,Tuesday
7,-10.6
8,0.0
9,0.0
10,0.0
11,0.0
12,0.0
13,0.0
14,3.792777343733336
15,-11.512503614581757
16,0.7562094798793169
17,-9.360207609226336
18,4.2984860491733569
2,1, 1, 1, 0, 6,45.00,60.00,Tuesday
7,-10.6
8,0.0
9,0.0
10,0.0
11,0.0
12,0.0
13,0.0
14,3.743700787090964
15,-11.513446690124349
16,0.7155779309888999
17,-9.368607553190941
18,4.24830056095086
2,1, 1, 1, 0, 7, 0.00,15.00,Tuesday
7,-10.6
8,0.0
9,0.0
10,0.0
11,0.0
12,0.0
13,0.0
14,3.6966289279423889
15,-11.48992569512428
16,0.6689047370520598
17,-9.395926265398885
18,4.198259507378387
2,1, 1, 1, 0, 7,15.00,30.00,Tuesday
7,-10.6
8,0.0
9,0.0
10,0.0
11,0.0
12,0.0
13,0.0
14,3.6494322710357256
15,-11.467624202408994
16,0.6240499124825192
17,-9.42339722960969
18,4.148713080679608
2,1, 1, 1, 0, 7,30.00,45.00,Tuesday
7,-10.6
8,0.0
9,0.0
10,0.0
11,0.0
12,0.0
13,0.0
14,3.602524874651755
15,-11.446456767427707
16,0.5796174753764944
17,-9.45013320630477
18,4.099644915350817
2,1, 1, 1, 0, 7,45.00,60.00,Tuesday
7,-10.6
8,0.0
9,0.0
10,0.0
11,0.0
12,0.0
13,0.0
14,3.555915002203192
15,-11.42635620281339
16,0.5356662352098169
17,-9.476002893747989
18,4.050941059035729
2,1, 1, 1, 0, 8, 0.00,15.00,Tuesday
7,-10.45
8,0.0
9,0.0
10,0.0
11,0.0
12,0.0
13,0.0
14,3.5086873381790397
15,-11.377338236743542
16,0.51555704527334
17,-9.42578859602554
18,4.002262877898447
2,1, 1, 1, 0, 8,15.00,30.00,Tuesday
7,-10.3
8,148.01653406355423
9,1.0
10,22.819555959623899
11,1.0
12,22.819555959623899
13,148.01653406355423
14,3.580075375524412
15,-9.703822914595652
16,0.8243106338618418
17,-9.092555336934538
18,3.971304863651476
2,1, 1, 1, 0, 8,30.00,45.00,Tuesday
7,-10.15
8,726.7626658795771
9,1.0
10,109.75755355442667
11,1.0
12,109.75755355442667
13,726.7626658795771
14,3.9747719256713136
15,-3.334780407422806
16,2.134449620083103
17,-7.9496340449769609
18,4.0073234611987129
2,1, 1, 1, 0, 8,45.00,60.00,Tuesday
7,-10.0
8,1321.5398876183454
9,1.0
10,195.8764694434918
11,1.0
12,195.8764694434918
13,1321.5398876183454
14,4.478962403756262
15,3.1514924409367479
16,3.58798718886635
17,-6.793758312722275
18,4.117278469956771
2,1, 1, 1, 0, 9, 0.00,15.00,Tuesday
7,-9.725
8,1914.2684677019122
9,1.0
10,278.97248314719988
11,1.0
12,278.97248314719988
13,1914.2684677019122
14,4.88847212505973
15,8.325972401671584
16,5.085309910760827
17,-5.759698527544856
18,4.279595103184048
2,1, 1, 1, 0, 9,15.00,30.00,Tuesday
7,-9.45
8,2539.0723139239287
9,1.0
10,364.91995730569456
11,1.0
12,364.91995730569456
13,2539.0723139239287
14,5.320435118766208
15,13.404391464639133
16,6.527387762340254
17,-4.7208834363618739
18,4.4860024441647809
2,1, 1, 1, 0, 9,30.00,45.00,Tuesday
7,-9.175
8,2952.4401645531854
9,1.0
10,420.35879993239237
11,1.0
12,420.35879993239237
13,2952.4401645531854
14,5.624712744798451
15,16.162093805195526
16,7.498250302161978
17,-4.078960732871849
18,4.716829529973779
2,1, 1, 1, 0, 9,45.00,60.00,Tuesday
7,-8.9
8,3381.5497710147285
9,1.0
10,478.00138373643099
11,1.0
12,478.00138373643099
13,3381.5497710147285
14,5.981703387770764
15,19.156871533881
16,8.46414917408066
17,-3.4151478288681575
18,4.961663494769
2,1, 1, 1, 0,10, 0.00,15.00,Tuesday
7,-8.350000000000002
8,3819.725253109274
9,1.0
10,536.9185644770597
11,1.0
12,536.9185644770597
13,3819.725253109274
14,6.284699574391884
15,20.27372111632111
16,9.459369890854874
17,-2.7131016114011574
18,5.220519107532262
2,1, 1, 1, 0,10,15.00,30.00,Tuesday
7,-7.800000000000001
8,4273.038382073964
9,1.0
10,598.0969199229219
11,1.0
12,598.0969199229219
13,4273.038382073964
14,6.615837678489161
15,21.52616585547431
16,10.470392772255707
17,-2.0137537231792068
18,5.50004317401132
2,1, 1, 1, 0,10,30.00,45.00,Tuesday
7,-7.25
8,4570.41705599135
9,1.0
10,637.6133352894237
11,1.0
12,637.6133352894237
13,4570.41705599135
14,6.871919507297058
15,21.58537836777442
16,11.200917643063918
17,-1.5223842651977294
18,5.792312782312638
2,1, 1, 1, 0,10,45.00,60.00,Tuesday
7,-6.7
8,4863.415499992532
9,1.0
10,676.6412284283772
11,1.0
12,676.6412284283772
13,4863.415499992532
14,7.152772901757786
15,21.745229216841513
16,11.905581292123089
17,-1.0342954942160532
18,6.085589323463935
2,1, 1, 1, 0,11, 0.00,15.00,Tuesday
7,-6.275
8,5151.083555258329
9,1.0
10,715.0112779846514
11,1.0
12,715.0112779846514
13,5151.083555258329
14,7.510938729747819
15,23.84318266556535
16,12.651740535796137
17,-0.32032348599744867
18,6.380568771648019
2,1, 1, 1, 0,11,15.00,30.00,Tuesday
7,-5.85
8,5431.980261504443
9,1.0
10,752.5077794605232
11,1.0
12,752.5077794605232
13,5431.980261504443
14,7.859040833901818
15,25.778484483371849
16,13.39161757038164
17,0.3738822645927371
18,6.680519819512224
2,1, 1, 1, 0,11,30.00,45.00,Tuesday
7,-5.425
8,5348.4982062424219
9,1.0
10,742.5988714321785
11,1.0
12,742.5988714321785
13,5348.4982062424219
14,8.068280256135804
15,25.630481904652215
16,13.550944730079891
17,0.6665701115334741
18,6.9670659862508919
2,1, 1, 1, 0,11,45.00,60.00,Tuesday
7,-5.0
8,5229.212085320565
9,1.0
10,727.8169025450712
11,1.0
12,727.8169025450712
13,5229.212085320565
14,8.272698833664354
15,25.401633409333195
16,13.622740066228403
17,0.927610054689012
18,7.226586130554593
2,1, 1, 1, 0,12, 0.00,15.00,Tuesday
7,-4.575
8,5024.076099874195
9,1.0
10,700.3759009170325
11,1.0
12,700.3759009170325
13,5024.076099874195
14,8.417915698531088
15,24.6593086178164
16,13.54309987719381
17,1.1305053382923803
18,7.4513825162408449
2,1, 1, 1, 0,12,15.00,30.00,Tuesday
7,-4.15
8,4871.941229310379
9,1.0
10,681.6705029034473
11,1.0
12,681.6705029034473
13,4871.941229310379
14,8.584262632338023
15,24.329143539732905
16,13.543603738982143
17,1.4002852313180939
18,7.649163217815461
2,1, 1, 1, 0,12,30.00,45.00,Tuesday
7,-3.7249999999999998
8,4277.158639318312
9,1.0
10,602.01865277251
11,1.0
12,602.01865277251
13,4277.158639318312
14,8.507958902794327
15,21.300945144601888
16,12.795846028610413
17,1.1865643074755213
18,7.797530607648341
2,1, 1, 1, 0,12,45.00,60.00,Tuesday
7,-3.3
8,3493.2091881898688
9,1.0
10,493.55004396206007
11,1.0
12,493.55004396206007
13,3493.2091881898688
14,8.315525457305748
15,17.12275237189663
16,11.592525664450932
17,0.7213697015180856
18,7.870913157171165
2,1, 1, 1, 0,13, 0.00,15.00,Tuesday
7,-3.0249999999999996
8,2884.329594684993
9,1.0
10,412.335026418112
11,1.0
12,412.335026418112
13,2884.329594684993
14,8.181749535690127
15,14.278833455931214
16,10.628791809806785
17,0.40339288154609678
18,7.883960208742749
2,1, 1, 1, 0,13,15.00,30.00,Tuesday
7,-2.75
8,2112.505852961535
9,1.0
10,305.94037763660148
11,1.0
12,305.94037763660148
13,2112.505852961535
14,7.879576730991812
15,10.105873380143548
16,9.294925080267035
17,-0.14138078135829347
18,7.845632670898527
2,1, 1, 1, 0,13,30.00,45.00,Tuesday
7,-2.475
8,1928.6430638724333
9,1.0
10,281.0763483922329
11,1.0
12,281.0763483922329
13,1928.6430638724333
14,7.851794470701719
15,9.593335428822018
16,8.975117399505735
17,-0.026034175597544619
18,7.7926297215753259
2,1, 1, 1, 0,13,45.00,60.00,Tuesday
7,-2.2
8,1748.6103907990246
9,1.0
10,256.7721209415886
11,1.0
12,256.7721209415886
13,1748.6103907990246
14,7.818863953380925
15,8.986914490408522
16,8.726888972912548
17,0.11365993096455895
18,7.747581833862845
2,1, 1, 1, 0,14, 0.00,15.00,Tuesday
7,-1.9250000000000003
8,1428.4368474724172
9,1.0
10,210.73276284570657
11,1.0
12,210.73276284570657
13,1428.4368474724172
14,7.681466293576882
15,7.439523081066774
16,8.153936691206582
17,0.0332330831552099
18,7.707539878619352
2,1, 1, 1, 0,14,15.00,30.00,Tuesday
7,-1.6500000000000002
8,1268.9130128289644
9,1.0
10,189.38488290342594
11,1.0
12,189.38488290342594
13,1268.9130128289644
14,7.647615680481358
15,7.034800422013962
16,7.883300568689947
17,0.1491041613643347
18,7.672245936086801
2,1, 1, 1, 0,14,30.00,45.00,Tuesday
7,-1.375
8,1210.183907816838
9,1.0
10,179.3940297802914
11,1.0
12,179.3940297802914
13,1210.183907816838
14,7.641343287702377
15,7.1580295813148
16,7.826246401681601
17,0.3817145658024401
18,7.643231578471934
2,1, 1, 1, 0,14,45.00,60.00,Tuesday
7,-1.1
8,1150.7838549847675
9,1.0
10,169.43349014176136
11,1.0
12,169.43349014176136
13,1150.7838549847675
14,7.630801671535651
15,7.256962123137974
16,7.762682915240134
17,0.6124286633377096
18,7.619968313955747
2,1, 1, 1, 0,15, 0.00,15.00,Tuesday
7,-1.1
8,1211.2722036188898
9,1.0
10,178.15692317953907
11,1.0
12,178.15692317953907
13,1211.2722036188898
14,7.692978100763347
15,8.076142518671828
16,7.9051856267740849
17,0.748515367211553
18,7.605362578555915
2,1, 1, 1, 0,15,15.00,30.00,Tuesday
7,-1.1
8,1137.956969239262
9,1.0
10,166.40516310952945
11,1.0
12,166.40516310952945
13,1137.956969239262
14,7.642204102700193
15,7.71195250574027
16,7.754468061467264
17,0.690185137950607
18,7.594289141295071
2,1, 1, 1, 0,15,30.00,45.00,Tuesday
7,-1.1
8,959.5048700088413
9,1.0
10,140.8967369711617
11,1.0
12,140.8967369711617
13,959.5048700088413
14,7.526389849236045
15,6.505129662573486
16,7.331095372706272
17,0.4594631178848658
18,7.576895890379077
2,1, 1, 1, 0,15,45.00,60.00,Tuesday
7,-1.1
8,789.5943100597586
9,1.0
10,116.57355796743004
11,1.0
12,116.57355796743004
13,789.5943100597586
14,7.4143502896750379
15,5.297392098752184
16,6.928332191520781
17,0.2236502226871835
18,7.542370366275284
2,1, 1, 1, 0,16, 0.00,15.00,Tuesday
7,-1.1
8,626.6670946066905
9,1.0
10,93.14939272689483
11,1.0
12,93.14939272689483
13,626.6670946066905
14,7.314329221266103
15,4.247004942868522
16,6.571824421622068
17,0.06561861723992024
18,7.4888833880173168
2,1, 1, 1, 0,16,15.00,30.00,Tuesday
7,-1.1
8,389.03606784106605
9,1.0
10,57.94047897402063
11,1.0
12,57.94047897402063
13,389.03606784106605
14,7.124920068577143
15,2.1227500505286649
16,6.032535851550506
17,-0.24418632611639169
18,7.409623810402894
2,1, 1, 1, 0,16,30.00,45.00,Tuesday
7,-1.1
8,301.6300334626334
9,1.0
10,45.38251793443488
11,1.0
12,45.38251793443488
13,301.6300334626334
14,7.050377532847767
15,1.5121262625381283
16,5.801314452737188
17,-0.3070070951306434
18,7.3158243259829789
2,1, 1, 1, 0,16,45.00,60.00,Tuesday
7,-1.1
8,210.5577464414455
9,1.0
10,32.02625108222755
11,1.0
12,32.02625108222755
13,210.5577464414455
14,6.9370449128795539
15,0.6487488468548356
16,5.580974463999098
17,-0.3750390168759168
18,7.221875029850749
2,1, 1, 1, 0,17, 0.00,15.00,Tuesday
7,-1.1
8,115.49062901586869
9,1.0
10,17.762198626050539
11,1.0
12,17.762198626050539
13,115.49062901586869
14,6.798593039892516
15,-0.6025454263909932
16,5.305137284859654
17,-0.5568506580654002
18,7.128499043434809
2,1, 1, 1, 0,17,15.00,30.00,Tuesday
7,-1.1
8,0.0
9,0.0
10,0.0
11,0.0
12,0.0
13,0.0
14,6.611010718346236
15,-2.4397979651416934
16,4.957854763284558
17,-0.8431641226013085
18,7.024380442552262
2,1, 1, 1, 0,17,30.00,45.00,Tuesday
7,-1.1
8,0.0
9,0.0
10,0.0
11,0.0
12,0.0
13,0.0
14,6.555138816273168
15,-2.575670497317554
16,4.869837397111269
17,-0.8474432039459998
18,6.923317272177748
2,1, 1, 1, 0,17,45.00,60.00,Tuesday
7,-1.1
8,0.0
9,0.0
10,0.0
11,0.0
12,0.0
13,0.0
14,6.484123805790516
15,-2.76663410409261
16,4.822438947105923
17,-0.8355761523534966
18,6.838322995506631
2,1, 1, 1, 0,18, 0.00,15.00,Tuesday
7,-1.25
8,0.0
9,0.0
10,0.0
11,0.0
12,0.0
13,0.0
14,6.424559364091773
15,-2.914470970751098
16,4.733725812895614
17,-0.9743319279406251
18,6.7701598159058229
2,1, 1, 1, 0,18,15.00,30.00,Tuesday
7,-1.4
8,0.0
9,0.0
10,0.0
11,0.0
12,0.0
13,0.0
14,6.370223411116892
15,-3.066886779795072
16,4.658902242699014
17,-1.1048379996141194
18,6.713775132067436
2,1, 1, 1, 0,18,30.00,45.00,Tuesday
7,-1.5499999999999999
8,0.0
9,0.0
10,0.0
11,0.0
12,0.0
13,0.0
14,6.3200968788303
15,-3.21883669629358
16,4.588388059586634
17,-1.2344836343730777
18,6.663916357897261
2,1, 1, 1, 0,18,45.00,60.00,Tuesday
7,-1.7
8,0.0
9,0.0
10,0.0
11,0.0
12,0.0
13,0.0
14,6.272013469004944
15,-3.370955134604777
16,4.5207501376017948
17,-1.3634104516289654
18,6.61722971756532
2,1, 1, 1, 0,19, 0.00,15.00,Tuesday
7,-1.825
8,0.0
9,0.0
10,0.0
11,0.0
12,0.0
13,0.0
14,6.248993409524758
15,-3.2236947549113257
16,4.450569227603296
17,-1.5007138789029569
18,6.575548676857985
2,1, 1, 1, 0,19,15.00,30.00,Tuesday
7,-1.9500000000000002
8,0.0
9,0.0
10,0.0
11,0.0
12,0.0
13,0.0
14,6.224921658135145
15,-3.1577610793872457
16,4.392009478675732
17,-1.6323799256371672
18,6.540640058633036
2,1, 1, 1, 0,19,30.00,45.00,Tuesday
7,-2.075
8,0.0
9,0.0
10,0.0
11,0.0
12,0.0
13,0.0
14,6.196329094279067
15,-3.231787824722508
16,4.34386116031942
17,-1.743925869903478
18,6.511053390816617
2,1, 1, 1, 0,19,45.00,60.00,Tuesday
7,-2.2
8,0.0
9,0.0
10,0.0
11,0.0
12,0.0
13,0.0
14,6.170679089927822
15,-3.2103184977602448
16,4.289623490709005
17,-1.8727808146937264
18,6.483748790628313
2,1, 1, 1, 0,20, 0.00,15.00,Tuesday
7,-1.9250000000000003
8,0.0
9,0.0
10,0.0
11,0.0
12,0.0
13,0.0
14,6.160822300251989
15,-2.909333578404598
16,4.331451821299595
17,-1.664351585613531
18,6.459138650958588
2,1, 1, 1, 0,20,15.00,30.00,Tuesday
7,-1.6500000000000002
8,0.0
9,0.0
10,0.0
11,0.0
12,0.0
13,0.0
14,6.151480682922452
15,-2.6113190891454325
16,4.37227174164542
17,-1.4446860670168463
18,6.437734754181554
2,1, 1, 1, 0,20,30.00,45.00,Tuesday
7,-1.375
8,0.0
9,0.0
10,0.0
11,0.0
12,0.0
13,0.0
14,6.144834664168277
15,-2.314583115257611
16,4.414546556022174
17,-1.2235172935845072
18,6.419276011884507
2,1, 1, 1, 0,20,45.00,60.00,Tuesday
7,-1.1
8,0.0
9,0.0
10,0.0
11,0.0
12,0.0
13,0.0
14,6.13877793983221
15,-2.019140397596258
16,4.45929497154242
17,-0.9996378799932018
18,6.403040627370343
2,1, 1, 1, 0,21, 0.00,15.00,Tuesday
7,-1.25
8,0.0
9,0.0
10,0.0
11,0.0
12,0.0
13,0.0
14,6.0908160927237289
15,-2.2994616844030615
16,4.416787948655497
17,-1.0898930216453096
18,6.382162416659185
2,1, 1, 1, 0,21,15.00,30.00,Tuesday
7,-1.4
8,0.0
9,0.0
10,0.0
11,0.0
12,0.0
13,0.0
14,6.04445168035176
15,-2.5155699060850216
16,4.362189356121462
17,-1.1958272080769348
18,6.351967835159919
2,1, 1, 1, 0,21,30.00,45.00,Tuesday
7,-1.5499999999999999
8,0.0
9,0.0
10,0.0
11,0.0
12,0.0
13,0.0
14,5.984616620392342
15,-2.8588384537557229
16,4.31022225546775
17,-1.2848874100967578
18,6.311625874923813
2,1, 1, 1, 0,21,45.00,60.00,Tuesday
7,-1.7
8,0.0
9,0.0
10,0.0
11,0.0
12,0.0
13,0.0
14,5.919499951627725
15,-3.309534535811549
16,4.258676225093723
17,-1.3501565357502728
18,6.263387561751204
2,1, 1, 1, 0,22, 0.00,15.00,Tuesday
7,-1.5499999999999999
8,0.0
9,0.0
10,0.0
11,0.0
12,0.0
13,0.0
14,5.922770583142309
15,-2.8234319551893907
16,4.233236559924876
17,-1.3006272998371742
18,6.220797100294044
2,1, 1, 1, 0,22,15.00,30.00,Tuesday
7,-1.4
8,0.0
9,0.0
10,0.0
11,0.0
12,0.0
13,0.0
14,5.916180861855982
15,-2.4942871057948285
16,4.241814173147304
17,-1.2167077424029458
18,6.1911760868849889
2,1, 1, 1, 0,22,30.00,45.00,Tuesday
7,-1.25
8,0.0
9,0.0
10,0.0
11,0.0
12,0.0
13,0.0
14,5.908447111137536
15,-2.274633996210586
16,4.257226214545028
17,-1.1131130475491205
18,6.172266775023768
2,1, 1, 1, 0,22,45.00,60.00,Tuesday
7,-1.1
8,0.0
9,0.0
10,0.0
11,0.0
12,0.0
13,0.0
14,5.904697288543246
15,-1.992905074149659
16,4.273645119484968
17,-1.0108178867316156
18,6.15881797753097
2,1, 1, 1, 0,23, 0.00,15.00,Tuesday
7,-1.25
8,0.0
9,0.0
10,0.0
11,0.0
12,0.0
13,0.0
14,5.856277435409411
15,-2.296276612742268
16,4.1832590808440959
17,-1.2856612297659922
18,6.1402908605401909
2,1, 1, 1, 0,23,15.00,30.00,Tuesday
7,-1.4
8,0.0
9,0.0
10,0.0
11,0.0
12,0.0
13,0.0
14,5.810818667959111
15,-2.6008732701914365
16,4.0807670471917849
17,-1.578923676008344
18,6.11153542181905
2,1, 1, 1, 0,23,30.00,45.00,Tuesday
7,-1.5499999999999999
8,0.0
9,0.0
10,0.0
11,0.0
12,0.0
13,0.0
14,5.760670045247101
15,-2.90614089767553
16,3.9765567981726237
17,-1.874081736495043
18,6.073699273224065
2,1, 1, 1, 0,23,45.00,60.00,Tuesday
7,-1.7
8,0.0
9,0.0
10,0.0
11,0.0
12,0.0
13,0.0
14,5.706640050375216
15,-3.211749973103791
16,3.8692618202377959
17,-2.1672954283081937
18,6.029785808161365
2,1, 1, 1, 0,24, 0.00,15.00,Tuesday
7,-1.7
8,0.0
9,0.0
10,0.0
11,0.0
12,0.0
13,0.0
14,5.668750622948489
15,-3.2657969744664236
16,3.8201532812502139
17,-2.2303052641750584
18,5.985375164215669
2,1, 1, 1, 0,24,15.00,30.00,Tuesday
7,-1.7
8,0.0
9,0.0
10,0.0
11,0.0
12,0.0
13,0.0
14,5.628720182326056
15,-3.320465752270185
16,3.7750378039509089
17,-2.2915798909673414
18,5.943449449983606
2,1, 1, 1, 0,24,30.00,45.00,Tuesday
7,-1.7
8,0.0
9,0.0
10,0.0
11,0.0
12,0.0
13,0.0
14,5.589733994904022
15,-3.375026699573056
16,3.729741797644351
17,-2.352853734599762
18,5.9040116968541389
2,1, 1, 1, 0,24,45.00,60.00,Tuesday
7,-1.7
8,0.0
9,0.0
10,0.0
11,0.0
12,0.0
13,0.0
14,5.551542265811598
15,-3.4295899913444076
16,3.685334339855558
17,-2.4138350629972367
18,5.866060107027437
End of Data
 Number of Records Written=        1152
