Program Version,EnergyPlus, Version 9.5.0-de239b2e5f, YMD=2022.11.01 22:08
1,5,Environment Title[],Latitude[deg],Longitude[deg],Time Zone[],Elevation[m]
2,8,Day of Simulation[],Month[],Day of Month[],DST Indicator[1=yes 0=no],Hour[],StartMinute[],EndMinute[],DayType
3,5,Cumulative Day of Simulation[],Month[],Day of Month[],DST Indicator[1=yes 0=no],DayType  ! When Daily Report Variables Requested
4,2,Cumulative Days of Simulation[],Month[]  ! When Monthly Report Variables Requested
5,1,Cumulative Days of Simulation[] ! When Run Period Report Variables Requested
6,1,Calendar Year of Simulation[] ! When Annual Report Variables Requested
7,1,Environment,Site Outdoor Air Drybulb Temperature [C] !TimeStep
8,1,ZONE ONE,Zone Windows Total Transmitted Solar Radiation Rate [W] !TimeStep
9,1,ZN001:WALL001,Surface Outside Face Sunlit Fraction [] !TimeStep
10,1,ZN001:WALL001,Surface Outside Face Incident Solar Radiation Rate per Area [W/m2] !TimeStep
11,1,ZN001:WALL001:WIN001,Surface Outside Face Sunlit Fraction [] !TimeStep
12,1,ZN001:WALL001:WIN001,Surface Outside Face Incident Solar Radiation Rate per Area [W/m2] !TimeStep
13,1,ZN001:WALL001:WIN001,Surface Window Transmitted Solar Radiation Rate [W] !TimeStep
14,1,ZN001:WALL001,Surface Inside Face Temperature [C] !TimeStep
15,1,ZN001:WALL001,Surface Outside Face Temperature [C] !TimeStep
16,1,ZN001:WALL001:WIN001,Surface Inside Face Temperature [C] !TimeStep
17,1,ZN001:WALL001:WIN001,Surface Outside Face Temperature [C] !TimeStep
18,1,ZONE ONE,Zone Mean Air Temperature [C] !TimeStep
End of Data Dictionary
1,RUN PERIOD 1,  41.98, -87.92,  -6.00, 201.00
2,1, 1, 1, 0, 1, 0.00,15.00,Tuesday
7,-4.324999999999999
8,0.0
9,0.0
10,0.0
11,0.0
12,0.0
13,0.0
14,6.0618263880604
15,-5.893535290075584
16,3.711718988715859
17,-4.357293845563277
18,6.525712722275312
2,1, 1, 1, 0, 1,15.00,30.00,Tuesday
7,-6.949999999999999
8,0.0
9,0.0
10,0.0
11,0.0
12,0.0
13,0.0
14,5.879484056217588
15,-8.360938931335254
16,3.1068424773299059
17,-6.444880780742835
18,6.427134624388312
2,1, 1, 1, 0, 1,30.00,45.00,Tuesday
7,-9.575
8,0.0
9,0.0
10,0.0
11,0.0
12,0.0
13,0.0
14,5.677143825838857
15,-10.836314293053409
16,2.4959545601510628
17,-8.538808644000767
18,6.296781599392334
2,1, 1, 1, 0, 1,45.00,60.00,Tuesday
7,-12.2
8,0.0
9,0.0
10,0.0
11,0.0
12,0.0
13,0.0
14,5.458943984160492
15,-13.318310587013098
16,1.8702743235753019
17,-10.640403546316748
18,6.144382762737952
2,1, 1, 1, 0, 2, 0.00,15.00,Tuesday
7,-12.075
8,0.0
9,0.0
10,0.0
11,0.0
12,0.0
13,0.0
14,5.389812566259939
15,-13.11927937308637
16,1.8005793994329907
17,-10.482431856737435
18,6.006990294475084
2,1, 1, 1, 0, 2,15.00,30.00,Tuesday
7,-11.95
8,0.0
9,0.0
10,0.0
11,0.0
12,0.0
13,0.0
14,5.307168538269183
15,-12.942226918518504
16,1.765978971138793
17,-10.337814232421352
18,5.901542196721011
2,1, 1, 1, 0, 2,30.00,45.00,Tuesday
7,-11.825
8,0.0
9,0.0
10,0.0
11,0.0
12,0.0
13,0.0
14,5.24170941978862
15,-12.764014727215427
16,1.7370443246477408
17,-10.19278549648186
18,5.822596023893054
2,1, 1, 1, 0, 2,45.00,60.00,Tuesday
7,-11.7
8,0.0
9,0.0
10,0.0
11,0.0
12,0.0
13,0.0
14,5.187428088839678
15,-12.585882832971626
16,1.7208010874691127
17,-10.045113475121639
18,5.7591168926911859
2,1, 1, 1, 0, 3, 0.00,15.00,Tuesday
7,-11.549999999999999
8,0.0
9,0.0
10,0.0
11,0.0
12,0.0
13,0.0
14,5.134860364236715
15,-12.45952859631838
16,1.7153493668250804
17,-9.907805925013463
18,5.702242710434276
2,1, 1, 1, 0, 3,15.00,30.00,Tuesday
7,-11.399999999999999
8,0.0
9,0.0
10,0.0
11,0.0
12,0.0
13,0.0
14,5.08538538959978
15,-12.334529540519448
16,1.7047932531523884
17,-9.750996645853548
18,5.647510886450517
2,1, 1, 1, 0, 3,30.00,45.00,Tuesday
7,-11.25
8,0.0
9,0.0
10,0.0
11,0.0
12,0.0
13,0.0
14,5.036848601744442
15,-12.211043164862346
16,1.702832350854976
17,-9.612631820293302
18,5.593743858662287
2,1, 1, 1, 0, 3,45.00,60.00,Tuesday
7,-11.1
8,0.0
9,0.0
10,0.0
11,0.0
12,0.0
13,0.0
14,4.988713320192931
15,-12.0891196045076
16,1.6946015842626139
17,-9.456188014336874
18,5.540735466542698
2,1, 1, 1, 0, 4, 0.00,15.00,Tuesday
7,-11.1
8,0.0
9,0.0
10,0.0
11,0.0
12,0.0
13,0.0
14,4.936894408227686
15,-12.061106626411482
16,1.6407717765862345
17,-9.493540155939059
18,5.487639864868905
2,1, 1, 1, 0, 4,15.00,30.00,Tuesday
7,-11.1
8,0.0
9,0.0
10,0.0
11,0.0
12,0.0
13,0.0
14,4.885455082522377
15,-12.034171275593336
16,1.5900918702977834
17,-9.529963536981655
18,5.434121597790831
2,1, 1, 1, 0, 4,30.00,45.00,Tuesday
7,-11.1
8,0.0
9,0.0
10,0.0
11,0.0
12,0.0
13,0.0
14,4.8338402534855
15,-12.008750297607519
16,1.5397819351446743
17,-9.565433519275985
18,5.380297713770322
2,1, 1, 1, 0, 4,45.00,60.00,Tuesday
7,-11.1
8,0.0
9,0.0
10,0.0
11,0.0
12,0.0
13,0.0
14,4.782155211826995
15,-11.98471354971073
16,1.4896693564008957
17,-9.599870472360465
18,5.326383711292309
2,1, 1, 1, 0, 5, 0.00,15.00,Tuesday
7,-10.975
8,0.0
9,0.0
10,0.0
11,0.0
12,0.0
13,0.0
14,4.736094745757539
15,-11.862779473306937
16,1.476348405754436
17,-9.513750224974445
18,5.273590825489719
2,1, 1, 1, 0, 5,15.00,30.00,Tuesday
7,-10.85
8,0.0
9,0.0
10,0.0
11,0.0
12,0.0
13,0.0
14,4.690252984899679
15,-11.740914589797536
16,1.4608800325555649
17,-9.41958943845043
18,5.222404674751829
2,1, 1, 1, 0, 5,30.00,45.00,Tuesday
7,-10.725
8,0.0
9,0.0
10,0.0
11,0.0
12,0.0
13,0.0
14,4.645442369505668
15,-11.619027068698886
16,1.4456976577952219
17,-9.32458093180253
18,5.1725958764455719
2,1, 1, 1, 0, 5,45.00,60.00,Tuesday
7,-10.6
8,0.0
9,0.0
10,0.0
11,0.0
12,0.0
13,0.0
14,4.601490002340676
15,-11.497149015546043
16,1.4313200810438503
17,-9.229335970607224
18,5.123785407878114
2,1, 1, 1, 0, 6, 0.00,15.00,Tuesday
7,-10.6
8,0.0
9,0.0
10,0.0
11,0.0
12,0.0
13,0.0
14,4.5505740607085249
15,-11.498143805861709
16,1.3880323089271088
17,-9.23070976497354
18,5.07436976099043
2,1, 1, 1, 0, 6,15.00,30.00,Tuesday
7,-10.6
8,0.0
9,0.0
10,0.0
11,0.0
12,0.0
13,0.0
14,4.500293139414295
15,-11.499085516693242
16,1.345794714886324
17,-9.23872292368759
18,5.023640547272737
2,1, 1, 1, 0, 6,30.00,45.00,Tuesday
7,-10.6
8,0.0
9,0.0
10,0.0
11,0.0
12,0.0
13,0.0
14,4.449478037973152
15,-11.500069281269802
16,1.303743367506513
17,-9.247319439449712
18,4.971880170654134
2,1, 1, 1, 0, 6,45.00,60.00,Tuesday
7,-10.6
8,0.0
9,0.0
10,0.0
11,0.0
12,0.0
13,0.0
14,4.398354561154756
15,-11.501050947081291
16,1.2613325640692779
17,-9.256062540357562
18,4.91960448812723
2,1, 1, 1, 0, 7, 0.00,15.00,Tuesday
7,-10.6
8,0.0
9,0.0
10,0.0
11,0.0
12,0.0
13,0.0
14,4.349204493392628
15,-11.477893761727163
16,1.212419088686147
17,-9.285337408214275
18,4.867478964696741
2,1, 1, 1, 0, 7,15.00,30.00,Tuesday
7,-10.6
8,0.0
9,0.0
10,0.0
11,0.0
12,0.0
13,0.0
14,4.299939618283475
15,-11.455937302868156
16,1.1653858934672599
17,-9.314809478844382
18,4.815848461787169
2,1, 1, 1, 0, 7,30.00,45.00,Tuesday
7,-10.6
8,0.0
9,0.0
10,0.0
11,0.0
12,0.0
13,0.0
14,4.250969135102061
15,-11.43509827054226
16,1.118796573722932
17,-9.343503843262568
18,4.764696074295398
2,1, 1, 1, 0, 7,45.00,60.00,Tuesday
7,-10.6
8,0.0
9,0.0
10,0.0
11,0.0
12,0.0
13,0.0
14,4.20229994358798
15,-11.415310373271286
16,1.0727040537337303
17,-9.371282046231613
18,4.713909355639762
2,1, 1, 1, 0, 8, 0.00,15.00,Tuesday
7,-10.45
8,0.0
9,0.0
10,0.0
11,0.0
12,0.0
13,0.0
14,4.153069123499778
15,-11.366049701053252
16,1.0513089112346279
17,-9.319848248307665
18,4.6631678094933
2,1, 1, 1, 0, 8,15.00,30.00,Tuesday
7,-10.3
8,161.3583705154801
9,1.0
10,22.819555959623899
11,1.0
12,22.819555959623899
13,161.3583705154801
14,4.224903108971109
15,-9.692404734745587
16,1.3513292444029049
17,-8.990339131123392
18,4.630789498867028
2,1, 1, 1, 0, 8,30.00,45.00,Tuesday
7,-10.15
8,792.2712165890436
9,1.0
10,109.75755355442667
11,1.0
12,109.75755355442667
13,792.2712165890436
14,4.62705215598421
15,-3.3215799489408934
16,2.6292508503416345
17,-7.868924632680944
18,4.667871769857479
2,1, 1, 1, 0, 8,45.00,60.00,Tuesday
7,-10.0
8,1440.660154531209
9,1.0
10,195.8764694434918
11,1.0
12,195.8764694434918
13,1440.660154531209
14,5.138760517873537
15,3.1609450015201707
16,4.046176010889553
17,-6.747438244710338
18,4.781733485037178
2,1, 1, 1, 0, 9, 0.00,15.00,Tuesday
7,-9.725
8,2086.8157914329315
9,1.0
10,278.97248314719988
11,1.0
12,278.97248314719988
13,2086.8157914329315
14,5.565061787756997
15,8.337577308154563
16,5.517367636593804
17,-5.725782681446219
18,4.94933989865753
2,1, 1, 1, 0, 9,15.00,30.00,Tuesday
7,-9.45
8,2767.937877930104
9,1.0
10,364.91995730569456
11,1.0
12,364.91995730569456
13,2767.937877930104
14,6.008353792778345
15,13.41489930823332
16,6.944973393285068
17,-4.709680502204719
18,5.162126282006681
2,1, 1, 1, 0, 9,30.00,45.00,Tuesday
7,-9.175
8,3218.5656623340858
9,1.0
10,420.35879993239237
11,1.0
12,420.35879993239237
13,3218.5656623340858
14,6.3232559998374049
15,16.172363825860363
16,7.905630670690073
17,-4.081779682564729
18,5.400054511374003
2,1, 1, 1, 0, 9,45.00,60.00,Tuesday
7,-8.9
8,3686.354124673286
9,1.0
10,478.00138373643099
11,1.0
12,478.00138373643099
13,3686.354124673286
14,6.692154960833196
15,19.16698465260918
16,8.860164832638361
17,-3.432540325672676
18,5.652525064551541
2,1, 1, 1, 0,10, 0.00,15.00,Tuesday
7,-8.350000000000002
8,4164.025637773179
9,1.0
10,536.9185644770597
11,1.0
12,536.9185644770597
13,4164.025637773179
14,7.008200112283074
15,20.283143555106908
16,9.845104122936164
17,-2.743011588311049
18,5.919518996082544
2,1, 1, 1, 0,10,15.00,30.00,Tuesday
7,-7.800000000000001
8,4658.199266992009
9,1.0
10,598.0969199229219
11,1.0
12,598.0969199229219
13,4658.199266992009
14,7.35333275630175
15,21.535077774291915
16,10.846242572955476
17,-2.055000970145727
18,6.206952596750255
2,1, 1, 1, 0,10,30.00,45.00,Tuesday
7,-7.25
8,4982.382903319829
9,1.0
10,637.6133352894237
11,1.0
12,637.6133352894237
13,4982.382903319829
14,7.621808023491836
15,21.593794192645473
16,11.573483142724854
17,-1.5693556994170877
18,6.328012678521718
2,1, 1, 1, 0,10,45.00,60.00,Tuesday
7,-6.7
8,5301.791486874168
9,1.0
10,676.6412284283772
11,1.0
12,676.6412284283772
13,5301.791486874168
14,7.869618730824269
15,21.751987780982615
16,12.249301167408135
17,-1.0902372770066223
18,6.5656017739367169
2,1, 1, 1, 0,11, 0.00,15.00,Tuesday
7,-6.275
8,5615.389213919758
9,1.0
10,715.0112779846514
11,1.0
12,715.0112779846514
13,5615.389213919758
14,8.166119028346597
15,23.848796860183478
16,12.93695156374963
17,-0.3917295492506696
18,6.749025542047965
2,1, 1, 1, 0,11,15.00,30.00,Tuesday
7,-5.85
8,5921.6052396518939
9,1.0
10,752.5077794605232
11,1.0
12,752.5077794605232
13,5921.6052396518939
14,8.527360479018438
15,25.785525603985165
16,13.650397221340143
17,0.29205028128387769
18,7.177760128874675
2,1, 1, 1, 0,11,30.00,45.00,Tuesday
7,-5.425
8,5830.598322830738
9,1.0
10,742.5988714321785
11,1.0
12,742.5988714321785
13,5830.598322830738
14,8.803856676618877
15,25.639066778829723
16,13.853609972142863
17,0.5932193058873736
18,7.556358469984573
2,1, 1, 1, 0,11,45.00,60.00,Tuesday
7,-5.0
8,5700.56005232055
9,1.0
10,727.8169025450712
11,1.0
12,727.8169025450712
13,5700.56005232055
14,9.043426903885145
15,25.4099945416477
16,13.970849910527364
17,0.8633778337336935
18,7.877355340112386
2,1, 1, 1, 0,12, 0.00,15.00,Tuesday
7,-4.575
8,5476.933627375907
9,1.0
10,700.3759009170325
11,1.0
12,700.3759009170325
13,5476.933627375907
14,9.212255469868973
15,24.66781424261384
16,13.924542694763773
17,1.075263225176684
18,8.14762026976358
2,1, 1, 1, 0,12,15.00,30.00,Tuesday
7,-4.15
8,5311.085703913388
9,1.0
10,681.6705029034473
11,1.0
12,681.6705029034473
13,5311.085703913388
14,9.367272363915316
15,24.3369493603013
16,13.932936375582927
17,1.3498193113433104
18,8.381126221152562
2,1, 1, 1, 0,12,30.00,45.00,Tuesday
7,-3.7249999999999998
8,4662.690913837124
9,1.0
10,602.01865277251
11,1.0
12,602.01865277251
13,4662.690913837124
14,9.308581064647044
15,21.3096148479532
16,13.220083191416393
17,1.1547048229542157
18,8.55599203835372
2,1, 1, 1, 0,12,45.00,60.00,Tuesday
7,-3.3
8,3808.0782396466049
9,1.0
10,493.55004396206007
11,1.0
12,493.55004396206007
13,3808.0782396466049
14,9.120328836217137
15,17.13143511239498
16,12.060398028496593
17,0.7129741770693272
18,8.647052624937285
2,1, 1, 1, 0,13, 0.00,15.00,Tuesday
7,-3.0249999999999996
8,3144.3157777726348
9,1.0
10,412.335026418112
11,1.0
12,412.335026418112
13,3144.3157777726348
14,8.990239635727959
15,14.287746703104299
16,11.127946450716422
17,0.4142446728643563
18,8.671248208683437
2,1, 1, 1, 0,13,15.00,30.00,Tuesday
7,-2.75
8,2302.921793799771
9,1.0
10,305.94037763660148
11,1.0
12,305.94037763660148
13,2302.921793799771
14,8.684330065178307
15,10.1149591388783
16,9.827829048192882
17,-0.1075462487438017
18,8.638890896609091
2,1, 1, 1, 0,13,30.00,45.00,Tuesday
7,-2.475
8,2102.486077387523
9,1.0
10,281.0763483922329
11,1.0
12,281.0763483922329
13,2102.486077387523
14,8.657811544833616
15,9.602863362661213
16,9.514102836310599
17,0.013990570907253641
18,8.589603851319584
2,1, 1, 1, 0,13,45.00,60.00,Tuesday
7,-2.2
8,1906.2257139727713
9,1.0
10,256.7721209415886
11,1.0
12,256.7721209415886
13,1906.2257139727713
14,8.62375766166271
15,8.996323181669265
16,9.274699200265559
17,0.16001373557128319
18,8.54753149425357
2,1, 1, 1, 0,14, 0.00,15.00,Tuesday
7,-1.9250000000000003
8,1557.1925362933394
9,1.0
10,210.73276284570657
11,1.0
12,210.73276284570657
13,1557.1925362933394
14,8.480265858563012
15,7.4491987474034639
16,8.708063931654749
17,0.08887045404208038
18,8.510036070186536
2,1, 1, 1, 0,14,15.00,30.00,Tuesday
7,-1.6500000000000002
8,1383.2896261942765
9,1.0
10,189.38488290342594
11,1.0
12,189.38488290342594
13,1383.2896261942765
14,8.445540533323852
15,7.044833819531276
16,8.431488278981647
17,0.2095186886706415
18,8.476682328771595
2,1, 1, 1, 0,14,30.00,45.00,Tuesday
7,-1.375
8,1319.2668280211315
9,1.0
10,179.3940297802914
11,1.0
12,179.3940297802914
13,1319.2668280211315
14,8.438044797244699
15,7.168455758955112
16,8.376952702455128
17,0.4452368115281615
18,8.448985919549119
2,1, 1, 1, 0,14,45.00,60.00,Tuesday
7,-1.1
8,1254.5126044864977
9,1.0
10,169.43349014176136
11,1.0
12,169.43349014176136
13,1254.5126044864977
14,8.425565858195269
15,7.267842340780617
16,8.315319522355708
17,0.6789744267534843
18,8.426419308389827
2,1, 1, 1, 0,15, 0.00,15.00,Tuesday
7,-1.1
8,1320.4532200564107
9,1.0
10,178.15692317953907
11,1.0
12,178.15692317953907
13,1320.4532200564107
14,8.491754532706742
15,8.090177456930317
16,8.461527295591168
17,0.8161202247838446
18,8.411732464247038
2,1, 1, 1, 0,15,15.00,30.00,Tuesday
7,-1.1
8,1240.5295356632537
9,1.0
10,166.40516310952945
11,1.0
12,166.40516310952945
13,1240.5295356632537
14,8.4372637625616
15,7.723187387925416
16,8.309020023678955
17,0.7603787862582863
18,8.400426464586677
2,1, 1, 1, 0,15,30.00,45.00,Tuesday
7,-1.1
8,1045.9922150261053
9,1.0
10,140.8967369711617
11,1.0
12,140.8967369711617
13,1045.9922150261053
14,8.316758821088696
15,6.516450507723058
16,7.9123194449805969
17,0.5361932124023952
18,8.382331449259894
2,1, 1, 1, 0,15,45.00,60.00,Tuesday
7,-1.1
8,860.7663464430427
9,1.0
10,116.57355796743004
11,1.0
12,116.57355796743004
13,860.7663464430427
14,8.204448127760922
15,5.310356716052167
16,7.523680393342545
17,0.3139914886914994
18,8.345703302291135
2,1, 1, 1, 0,16, 0.00,15.00,Tuesday
7,-1.1
8,683.1532833870217
9,1.0
10,93.14939272689483
11,1.0
12,93.14939272689483
13,683.1532833870217
14,8.100479214940116
15,4.260379699940198
16,7.179362186684898
17,0.1680520358834201
18,8.288957185139152
2,1, 1, 1, 0,16,15.00,30.00,Tuesday
7,-1.1
8,424.10279618814436
9,1.0
10,57.94047897402063
11,1.0
12,57.94047897402063
13,424.10279618814436
14,7.905527777493487
15,2.1372887033961516
16,6.655006914671048
17,-0.1263404044680101
18,8.204835282801488
2,1, 1, 1, 0,16,30.00,45.00,Tuesday
7,-1.1
8,328.81820268185666
9,1.0
10,45.38251793443488
11,1.0
12,45.38251793443488
13,328.81820268185666
14,7.827501450972085
15,1.5279349824755948
16,6.4268696763751909
17,-0.17884665771447318
18,8.10787023284647
2,1, 1, 1, 0,16,45.00,60.00,Tuesday
7,-1.1
8,229.53688978131854
9,1.0
10,32.02625108222755
11,1.0
12,32.02625108222755
13,229.53688978131854
14,7.710654181307602
15,0.6661433250955406
16,6.211457847796851
17,-0.2353801632382897
18,8.012015377089139
2,1, 1, 1, 0,17, 0.00,15.00,Tuesday
7,-1.1
8,125.90066255559691
9,1.0
10,17.762198626050539
11,1.0
12,17.762198626050539
13,125.90066255559691
14,7.569230215352799
15,-0.5830186017980084
16,5.941140909843057
17,-0.40390242329709738
18,7.9170295461306658
2,1, 1, 1, 0,17,15.00,30.00,Tuesday
7,-1.1
8,0.0
9,0.0
10,0.0
11,0.0
12,0.0
13,0.0
14,7.378497367530314
15,-2.4192879452117554
16,5.598741702856728
17,-0.6834068081366809
18,7.810843290411614
2,1, 1, 1, 0,17,30.00,45.00,Tuesday
7,-1.1
8,0.0
9,0.0
10,0.0
11,0.0
12,0.0
13,0.0
14,7.32077418079229
15,-2.55420930980232
16,5.511326998438335
17,-0.675978572921565
18,7.707646972220019
2,1, 1, 1, 0,17,45.00,60.00,Tuesday
7,-1.1
8,0.0
9,0.0
10,0.0
11,0.0
12,0.0
13,0.0
14,7.2476026912901869
15,-2.743455101800356
16,5.464930340971023
17,-0.6522710749134717
18,7.6208031099323769
2,1, 1, 1, 0,18, 0.00,15.00,Tuesday
7,-1.25
8,0.0
9,0.0
10,0.0
11,0.0
12,0.0
13,0.0
14,7.185905881670029
15,-2.891518537369718
16,5.374402013160932
17,-0.7924012505166616
18,7.550955635919324
2,1, 1, 1, 0,18,15.00,30.00,Tuesday
7,-1.4
8,0.0
9,0.0
10,0.0
11,0.0
12,0.0
13,0.0
14,7.1295558128104778
15,-3.043949197518746
16,5.297856124497628
17,-0.9236962877431552
18,7.492858221389426
2,1, 1, 1, 0,18,30.00,45.00,Tuesday
7,-1.5499999999999999
8,0.0
9,0.0
10,0.0
11,0.0
12,0.0
13,0.0
14,7.077425451794152
15,-3.1959423054123499
16,5.225660208852389
17,-1.054197658256271
18,7.44115931391562
2,1, 1, 1, 0,18,45.00,60.00,Tuesday
7,-1.7
8,0.0
9,0.0
10,0.0
11,0.0
12,0.0
13,0.0
14,7.027305719461545
15,-3.348103867738971
16,5.156331893632341
17,-1.183981272441315
18,7.392500762352502
2,1, 1, 1, 0,19, 0.00,15.00,Tuesday
7,-1.825
8,0.0
9,0.0
10,0.0
11,0.0
12,0.0
13,0.0
14,7.001826255955889
15,-3.2035020859295777
16,5.0799063436353439
17,-1.337243039557677
18,7.34870379698374
2,1, 1, 1, 0,19,15.00,30.00,Tuesday
7,-1.9500000000000002
8,0.0
9,0.0
10,0.0
11,0.0
12,0.0
13,0.0
14,6.9752054647053989
15,-3.1399059579617796
16,5.016380507384213
17,-1.4821843825009183
18,7.311549261619507
2,1, 1, 1, 0,19,30.00,45.00,Tuesday
7,-2.075
8,0.0
9,0.0
10,0.0
11,0.0
12,0.0
13,0.0
14,6.944208894122796
15,-3.214572800298518
16,4.965867979246809
17,-1.59771199073964
18,7.2796324446476989
2,1, 1, 1, 0,19,45.00,60.00,Tuesday
7,-2.2
8,0.0
9,0.0
10,0.0
11,0.0
12,0.0
13,0.0
14,6.916071638167289
15,-3.1951517070050534
16,4.906857306550137
17,-1.737421382064099
18,7.24991051075674
2,1, 1, 1, 0,20, 0.00,15.00,Tuesday
7,-1.9250000000000003
8,0.0
9,0.0
10,0.0
11,0.0
12,0.0
13,0.0
14,6.903698915856089
15,-2.8946760109194185
16,4.946098142789026
17,-1.5317601384438149
18,7.2228731339241218
2,1, 1, 1, 0,20,15.00,30.00,Tuesday
7,-1.6500000000000002
8,0.0
9,0.0
10,0.0
11,0.0
12,0.0
13,0.0
14,6.891809859627097
15,-2.5971218834213065
16,4.983966110119809
17,-1.3145559696437204
18,7.19906531013346
2,1, 1, 1, 0,20,30.00,45.00,Tuesday
7,-1.375
8,0.0
9,0.0
10,0.0
11,0.0
12,0.0
13,0.0
14,6.88170228047245
15,-2.300821913741615
16,5.023470895122273
17,-1.0950231381751792
18,7.178115168873492
2,1, 1, 1, 0,20,45.00,60.00,Tuesday
7,-1.1
8,0.0
9,0.0
10,0.0
11,0.0
12,0.0
13,0.0
14,6.874164137610177
15,-2.0057580611030256
16,5.06504046228963
17,-0.873215997260445
18,7.159440113165211
2,1, 1, 1, 0,21, 0.00,15.00,Tuesday
7,-1.25
8,0.0
9,0.0
10,0.0
11,0.0
12,0.0
13,0.0
14,6.824134737911881
15,-2.284037232008741
16,5.023875689693796
17,-0.9545841970859783
18,7.136175695162094
2,1, 1, 1, 0,21,15.00,30.00,Tuesday
7,-1.4
8,0.0
9,0.0
10,0.0
11,0.0
12,0.0
13,0.0
14,6.7759413049885179
15,-2.4990223554134065
16,4.9690081922607309
17,-1.0548737842115089
18,7.103627001070908
2,1, 1, 1, 0,21,30.00,45.00,Tuesday
7,-1.5499999999999999
8,0.0
9,0.0
10,0.0
11,0.0
12,0.0
13,0.0
14,6.714426168529895
15,-2.839516737822604
16,4.919259422658229
17,-1.1299682086698227
18,7.061029642611487
2,1, 1, 1, 0,21,45.00,60.00,Tuesday
7,-1.7
8,0.0
9,0.0
10,0.0
11,0.0
12,0.0
13,0.0
14,6.64762956461655
15,-3.2870188805796078
16,4.8701517152267119
17,-1.1778314563556478
18,7.010689288014039
2,1, 1, 1, 0,22, 0.00,15.00,Tuesday
7,-1.5499999999999999
8,0.0
9,0.0
10,0.0
11,0.0
12,0.0
13,0.0
14,6.6483050455304319
15,-2.8046737734504596
16,4.838316053978247
17,-1.1450439466484568
18,6.966065747244953
2,1, 1, 1, 0,22,15.00,30.00,Tuesday
7,-1.4
8,0.0
9,0.0
10,0.0
11,0.0
12,0.0
13,0.0
14,6.6389932492421759
15,-2.478080540059005
16,4.840983369376772
17,-1.0758748371033562
18,6.934372601110453
2,1, 1, 1, 0,22,30.00,45.00,Tuesday
7,-1.25
8,0.0
9,0.0
10,0.0
11,0.0
12,0.0
13,0.0
14,6.628734720963939
15,-2.2595700626491279
16,4.852880648512098
17,-0.9789340200399579
18,6.913293390384559
2,1, 1, 1, 0,22,45.00,60.00,Tuesday
7,-1.1
8,0.0
9,0.0
10,0.0
11,0.0
12,0.0
13,0.0
14,6.6224369177835149
15,-1.9798865206599519
16,4.863896192570792
17,-0.8883869613260345
18,6.897542471712866
2,1, 1, 1, 0,23, 0.00,15.00,Tuesday
7,-1.25
8,0.0
9,0.0
10,0.0
11,0.0
12,0.0
13,0.0
14,6.57193739395859
15,-2.28321702516561
16,4.772472786176195
17,-1.1642605116827554
18,6.8765566985300039
2,1, 1, 1, 0,23,15.00,30.00,Tuesday
7,-1.4
8,0.0
9,0.0
10,0.0
11,0.0
12,0.0
13,0.0
14,6.524543833264291
15,-2.5878287814565059
16,4.668978616047866
17,-1.456801912877495
18,6.8452870060221289
2,1, 1, 1, 0,23,30.00,45.00,Tuesday
7,-1.5499999999999999
8,0.0
9,0.0
10,0.0
11,0.0
12,0.0
13,0.0
14,6.472352689652827
15,-2.8931214159083997
16,4.563705685475554
17,-1.7513431392226267
18,6.804995751471637
2,1, 1, 1, 0,23,45.00,60.00,Tuesday
7,-1.7
8,0.0
9,0.0
10,0.0
11,0.0
12,0.0
13,0.0
14,6.4162606594514559
15,-3.1987542633099439
16,4.454426435581752
17,-2.047313591301247
18,6.758724751009849
2,1, 1, 1, 0,24, 0.00,15.00,Tuesday
7,-1.7
8,0.0
9,0.0
10,0.0
11,0.0
12,0.0
13,0.0
14,6.376157128341659
15,-3.2528607982076989
16,4.403456225743696
17,-2.1110609561981166
18,6.7120718221160449
2,1, 1, 1, 0,24,15.00,30.00,Tuesday
7,-1.7
8,0.0
9,0.0
10,0.0
11,0.0
12,0.0
13,0.0
14,6.333953320568866
15,-3.30756607829701
16,4.356499544481721
17,-2.1729134612745044
18,6.66798631577759
2,1, 1, 1, 0,24,30.00,45.00,Tuesday
7,-1.7
8,0.0
9,0.0
10,0.0
11,0.0
12,0.0
13,0.0
14,6.29284143303548
15,-3.362163574305846
16,4.309400526992704
17,-2.234732560545808
18,6.626422169486144
2,1, 1, 1, 0,24,45.00,60.00,Tuesday
7,-1.7
8,0.0
9,0.0
10,0.0
11,0.0
12,0.0
13,0.0
14,6.252546381798417
15,-3.4167639401055478
16,4.263221988510281
17,-2.2962415688564308
18,6.586345929606103
End of Data
 Number of Records Written=        1152
