Program Version,EnergyPlus, Version 9.5.0-de239b2e5f, YMD=2022.11.01 22:08
1,5,Environment Title[],Latitude[deg],Longitude[deg],Time Zone[],Elevation[m]
2,8,Day of Simulation[],Month[],Day of Month[],DST Indicator[1=yes 0=no],Hour[],StartMinute[],EndMinute[],DayType
3,5,Cumulative Day of Simulation[],Month[],Day of Month[],DST Indicator[1=yes 0=no],DayType  ! When Daily Report Variables Requested
4,2,Cumulative Days of Simulation[],Month[]  ! When Monthly Report Variables Requested
5,1,Cumulative Days of Simulation[] ! When Run Period Report Variables Requested
6,1,Calendar Year of Simulation[] ! When Annual Report Variables Requested
7,1,Environment,Site Outdoor Air Drybulb Temperature [C] !TimeStep
8,1,ZONE ONE,Zone Windows Total Transmitted Solar Radiation Rate [W] !TimeStep
9,1,ZN001:WALL001,Surface Outside Face Sunlit Fraction [] !TimeStep
10,1,ZN001:WALL001,Surface Outside Face Incident Solar Radiation Rate per Area [W/m2] !TimeStep
11,1,ZN001:WALL001:WIN001,Surface Outside Face Sunlit Fraction [] !TimeStep
12,1,ZN001:WALL001:WIN001,Surface Outside Face Incident Solar Radiation Rate per Area [W/m2] !TimeStep
13,1,ZN001:WALL001:WIN001,Surface Window Transmitted Solar Radiation Rate [W] !TimeStep
14,1,ZN001:WALL001,Surface Inside Face Temperature [C] !TimeStep
15,1,ZN001:WALL001,Surface Outside Face Temperature [C] !TimeStep
16,1,ZN001:WALL001:WIN001,Surface Inside Face Temperature [C] !TimeStep
17,1,ZN001:WALL001:WIN001,Surface Outside Face Temperature [C] !TimeStep
18,1,ZONE ONE,Zone Mean Air Temperature [C] !TimeStep
End of Data Dictionary
1,RUN PERIOD 1,  41.98, -87.92,  -6.00, 201.00
2,1, 1, 1, 0, 1, 0.00,15.00,Tuesday
7,-4.324999999999999
8,0.0
9,0.0
10,0.0
11,0.0
12,0.0
13,0.0
14,1.8725256078727284
15,-5.969877271261348
16,0.2647912493661124
17,-5.066713232983716
18,2.228829212708163
2,1, 1, 1, 0, 1,15.00,30.00,Tuesday
7,-6.949999999999999
8,0.0
9,0.0
10,0.0
11,0.0
12,0.0
13,0.0
14,1.6980187370225786
15,-8.437784118835709
16,-0.35242040631328566
17,-7.154444336655217
18,2.1438284127903675
2,1, 1, 1, 0, 1,30.00,45.00,Tuesday
7,-9.575
8,0.0
9,0.0
10,0.0
11,0.0
12,0.0
13,0.0
14,1.502582952457954
15,-10.9140880224692
16,-0.9715108146525608
17,-9.248790584202994
18,2.025876134940321
2,1, 1, 1, 0, 1,45.00,60.00,Tuesday
7,-12.2
8,0.0
9,0.0
10,0.0
11,0.0
12,0.0
13,0.0
14,1.2915942203878419
15,-13.396897009920198
16,-1.6044394587429452
17,-11.351382242974467
18,1.8842480771318802
2,1, 1, 1, 0, 2, 0.00,15.00,Tuesday
7,-12.075
8,0.0
9,0.0
10,0.0
11,0.0
12,0.0
13,0.0
14,1.2356159229365702
15,-13.198489549367729
16,-1.6658792213021343
17,-11.203558863554293
18,1.7560374035370495
2,1, 1, 1, 0, 2,15.00,30.00,Tuesday
7,-11.95
8,0.0
9,0.0
10,0.0
11,0.0
12,0.0
13,0.0
14,1.164951164035556
15,-13.021186923549319
16,-1.6881926444843885
17,-11.055763490743857
18,1.6592474724187263
2,1, 1, 1, 0, 2,30.00,45.00,Tuesday
7,-11.825
8,0.0
9,0.0
10,0.0
11,0.0
12,0.0
13,0.0
14,1.1111952543780273
15,-12.842687346459528
16,-1.7055640828757533
17,-10.907588121123127
18,1.5895824182224188
2,1, 1, 1, 0, 2,45.00,60.00,Tuesday
7,-11.7
8,0.0
9,0.0
10,0.0
11,0.0
12,0.0
13,0.0
14,1.068821791446107
15,-12.664247416252218
16,-1.7103409325960684
17,-10.756751164486332
18,1.5364941617766393
2,1, 1, 1, 0, 3, 0.00,15.00,Tuesday
7,-11.549999999999999
8,0.0
9,0.0
10,0.0
11,0.0
12,0.0
13,0.0
14,1.0281596164338603
15,-12.539767054393416
16,-1.7075969544705459
17,-10.627420983350192
18,1.490975098833977
2,1, 1, 1, 0, 3,15.00,30.00,Tuesday
7,-11.399999999999999
8,0.0
9,0.0
10,0.0
11,0.0
12,0.0
13,0.0
14,0.9909832911213063
15,-12.41672085038336
16,-1.7056150692659458
17,-10.489967732713297
18,1.4482761857486382
2,1, 1, 1, 0, 3,30.00,45.00,Tuesday
7,-11.25
8,0.0
9,0.0
10,0.0
11,0.0
12,0.0
13,0.0
14,0.9548580776106728
15,-12.295282966922298
16,-1.702130618065894
17,-10.351766338968503
18,1.4068166291509845
2,1, 1, 1, 0, 3,45.00,60.00,Tuesday
7,-11.1
8,0.0
9,0.0
10,0.0
11,0.0
12,0.0
13,0.0
14,0.9192909615513447
15,-12.175514316119346
16,-1.6979965605120242
17,-10.213801842480337
18,1.3662742293158535
2,1, 1, 1, 0, 4, 0.00,15.00,Tuesday
7,-11.1
8,0.0
9,0.0
10,0.0
11,0.0
12,0.0
13,0.0
14,0.8801573782513348
15,-12.144787141726102
16,-1.7406968411821709
17,-10.228617545675775
18,1.3257989053563298
2,1, 1, 1, 0, 4,15.00,30.00,Tuesday
7,-11.1
8,0.0
9,0.0
10,0.0
11,0.0
12,0.0
13,0.0
14,0.8414286392141457
15,-12.115250193064706
16,-1.7781568978155634
17,-10.250494934393032
18,1.2850501317469357
2,1, 1, 1, 0, 4,30.00,45.00,Tuesday
7,-11.1
8,0.0
9,0.0
10,0.0
11,0.0
12,0.0
13,0.0
14,0.8025659815237599
15,-12.08735412176363
16,-1.814906213649067
17,-10.272364851983412
18,1.2440950373463802
2,1, 1, 1, 0, 4,45.00,60.00,Tuesday
7,-11.1
8,0.0
9,0.0
10,0.0
11,0.0
12,0.0
13,0.0
14,0.7636440347691688
15,-12.060964895500958
16,-1.8514680736547576
17,-10.29358834541074
18,1.203089841979859
2,1, 1, 1, 0, 5, 0.00,15.00,Tuesday
7,-10.975
8,0.0
9,0.0
10,0.0
11,0.0
12,0.0
13,0.0
14,0.7304225415930492
15,-11.938722726377991
16,-1.8534648366575084
17,-10.204963105498564
18,1.1631252883474137
2,1, 1, 1, 0, 5,15.00,30.00,Tuesday
7,-10.85
8,0.0
9,0.0
10,0.0
11,0.0
12,0.0
13,0.0
14,0.6973840773111618
15,-11.81657705299015
16,-1.857226723696158
17,-10.108551659170189
18,1.1246694732722138
2,1, 1, 1, 0, 5,30.00,45.00,Tuesday
7,-10.725
8,0.0
9,0.0
10,0.0
11,0.0
12,0.0
13,0.0
14,0.6652938851848222
15,-11.694410969910687
16,-1.8607414907112344
17,-10.011308959976418
18,1.0875327075014634
2,1, 1, 1, 0, 5,45.00,60.00,Tuesday
7,-10.6
8,0.0
9,0.0
10,0.0
11,0.0
12,0.0
13,0.0
14,0.6340084932132272
15,-11.57225482053108
16,-1.8635154412224325
17,-9.913841973193258
18,1.0513680899449026
2,1, 1, 1, 0, 6, 0.00,15.00,Tuesday
7,-10.6
8,0.0
9,0.0
10,0.0
11,0.0
12,0.0
13,0.0
14,0.595405764183111
15,-11.57305004474466
16,-1.8934511767495224
17,-9.915709121796795
18,1.014694985972961
2,1, 1, 1, 0, 6,15.00,30.00,Tuesday
7,-10.6
8,0.0
9,0.0
10,0.0
11,0.0
12,0.0
13,0.0
14,0.557414588740712
15,-11.573756942631075
16,-1.9250828287314335
17,-9.921135021104988
18,0.9767228823791406
2,1, 1, 1, 0, 6,30.00,45.00,Tuesday
7,-10.6
8,0.0
9,0.0
10,0.0
11,0.0
12,0.0
13,0.0
14,0.5188971065121923
15,-11.574507576055565
16,-1.9566338418363785
17,-9.92737902406219
18,0.9376336814776043
2,1, 1, 1, 0, 6,45.00,60.00,Tuesday
7,-10.6
8,0.0
9,0.0
10,0.0
11,0.0
12,0.0
13,0.0
14,0.4800214611693374
15,-11.575258588110295
16,-1.9884819443462903
17,-9.933972412388698
18,0.8979086815286429
2,1, 1, 1, 0, 7, 0.00,15.00,Tuesday
7,-10.6
8,0.0
9,0.0
10,0.0
11,0.0
12,0.0
13,0.0
14,0.44327443191016838
15,-11.54992572913296
16,-2.0262484073807629
17,-9.949356797983228
18,0.8581894678494483
2,1, 1, 1, 0, 7,15.00,30.00,Tuesday
7,-10.6
8,0.0
9,0.0
10,0.0
11,0.0
12,0.0
13,0.0
14,0.40633850854366396
15,-11.525908676975384
16,-2.0603528601675409
17,-9.96629833864506
18,0.8189209669779514
2,1, 1, 1, 0, 7,30.00,45.00,Tuesday
7,-10.6
8,0.0
9,0.0
10,0.0
11,0.0
12,0.0
13,0.0
14,0.36964700925751045
15,-11.50310695541418
16,-2.0940511860529797
17,-9.982978563273037
18,0.7801468709495758
2,1, 1, 1, 0, 7,45.00,60.00,Tuesday
7,-10.6
8,0.0
9,0.0
10,0.0
11,0.0
12,0.0
13,0.0
14,0.33324136524544875
15,-11.481449319987542
16,-2.1273462932696818
17,-9.999093333909912
18,0.7417605075614359
2,1, 1, 1, 0, 8, 0.00,15.00,Tuesday
7,-10.45
8,0.0
9,0.0
10,0.0
11,0.0
12,0.0
13,0.0
14,0.2959329652873705
15,-11.433638108034952
16,-2.141341222307233
17,-9.955303778295275
18,0.703326174400211
2,1, 1, 1, 0, 8,15.00,30.00,Tuesday
7,-10.3
8,80.77203531507155
9,1.0
10,22.819555959623899
11,1.0
12,22.819555959623899
13,80.77203531507155
14,0.365287628058916
15,-9.760786290985454
16,-1.73787793106942
17,-9.562868338734802
18,0.6800109698231446
2,1, 1, 1, 0, 8,30.00,45.00,Tuesday
7,-10.15
8,398.4079844743602
9,1.0
10,109.75755355442667
11,1.0
12,109.75755355442667
13,398.4079844743602
14,0.7246215942385145
15,-3.401113810757594
16,-0.07914146260884536
17,-8.171317128504882
18,0.7130829494734946
2,1, 1, 1, 0, 8,45.00,60.00,Tuesday
7,-10.0
8,729.4521313379078
9,1.0
10,195.8764694434918
11,1.0
12,195.8764694434918
13,729.4521313379078
14,1.1915852020785956
15,3.1034954691603247
16,1.722191217653176
17,-6.793888431738878
18,0.8070262799814206
2,1, 1, 1, 0, 9, 0.00,15.00,Tuesday
7,-9.725
8,1064.1872083900988
9,1.0
10,278.97248314719988
11,1.0
12,278.97248314719988
13,1064.1872083900988
14,1.5216629029696512
15,8.268676269832465
16,3.3034542178730819
17,-5.611403526479535
18,0.9497768621659782
2,1, 1, 1, 0, 9,15.00,30.00,Tuesday
7,-9.45
8,1421.6919749548789
9,1.0
10,364.91995730569456
11,1.0
12,364.91995730569456
13,1421.6919749548789
14,1.9011707618019227
15,13.352187994911319
16,4.8625770153709599
17,-4.44569188146329
18,1.1331654279637982
2,1, 1, 1, 0, 9,30.00,45.00,Tuesday
7,-9.175
8,1664.1172986244238
9,1.0
10,420.35879993239237
11,1.0
12,420.35879993239237
13,1664.1172986244238
14,2.1587069801975744
15,16.111257799701506
16,5.883819072925178
17,-3.739792557041369
18,1.3376476059185719
2,1, 1, 1, 0, 9,45.00,60.00,Tuesday
7,-8.9
8,1917.290205450793
9,1.0
10,478.00138373643099
11,1.0
12,478.00138373643099
13,1917.290205450793
14,2.4633091518463119
15,19.106899893735159
16,6.909824097622391
17,-3.0056532109035745
18,1.5540478285793742
2,1, 1, 1, 0,10, 0.00,15.00,Tuesday
7,-8.350000000000002
8,2177.125433538441
9,1.0
10,536.9185644770597
11,1.0
12,536.9185644770597
13,2177.125433538441
14,2.708902262703126
15,20.227238662390634
16,7.960262808137941
17,-2.2559973679863107
18,1.7883660904629389
2,1, 1, 1, 0,10,15.00,30.00,Tuesday
7,-7.800000000000001
8,2446.658210918073
9,1.0
10,598.0969199229219
11,1.0
12,598.0969199229219
13,2446.658210918073
14,2.9803870934767215
15,21.48240114318271
16,9.033176614545141
17,-1.5089520433406847
18,2.0385576418485149
2,1, 1, 1, 0,10,30.00,45.00,Tuesday
7,-7.25
8,2627.3045294223254
9,1.0
10,637.6133352894237
11,1.0
12,637.6133352894237
13,2627.3045294223254
14,3.1834836688209644
15,21.544024247393023
16,9.782496100843787
17,-1.0039788066962956
18,2.2901158884463825
2,1, 1, 1, 0,10,45.00,60.00,Tuesday
7,-6.7
8,2805.3356840477588
9,1.0
10,676.6412284283772
11,1.0
12,676.6412284283772
13,2805.3356840477588
14,3.4033518764567365
15,21.705731775398897
16,10.507390114051305
17,-0.5027784339044956
18,2.534088141053424
2,1, 1, 1, 0,11, 0.00,15.00,Tuesday
7,-6.275
8,2980.0559873478898
9,1.0
10,715.0112779846514
11,1.0
12,715.0112779846514
13,2980.0559873478898
14,3.699732735975448
15,23.803124657505209
16,11.273227138702623
17,0.2497456055073144
18,2.7743529037368246
2,1, 1, 1, 0,11,15.00,30.00,Tuesday
7,-5.85
8,3150.49045789882
9,1.0
10,752.5077794605232
11,1.0
12,752.5077794605232
13,3150.49045789882
14,3.9823472817442928
15,25.73801161206278
16,12.026080833465528
17,0.9795455071951551
18,3.0159348653182667
2,1, 1, 1, 0,11,30.00,45.00,Tuesday
7,-5.425
8,3104.4483869496968
9,1.0
10,742.5988714321785
11,1.0
12,742.5988714321785
13,3104.4483869496968
14,4.140808138248772
15,25.589802342242935
16,12.121925625946745
17,1.2542584920570335
18,3.2430186153473188
2,1, 1, 1, 0,11,45.00,60.00,Tuesday
7,-5.0
8,3036.1618498032896
9,1.0
10,727.8169025450712
11,1.0
12,727.8169025450712
13,3036.1618498032896
14,4.295167143117542
15,25.3603200099701
16,12.125788452555753
17,1.4921639279559145
18,3.444469995914714
2,1, 1, 1, 0,12, 0.00,15.00,Tuesday
7,-4.575
8,2917.8960982425385
9,1.0
10,700.3759009170325
11,1.0
12,700.3759009170325
13,2917.8960982425385
14,4.398947814599916
15,24.617483907100689
16,11.95288681754846
17,1.6535728483950152
18,3.614908601474129
2,1, 1, 1, 0,12,15.00,30.00,Tuesday
7,-4.15
8,2827.328358622579
9,1.0
10,681.6705029034473
11,1.0
12,681.6705029034473
13,2827.328358622579
14,4.521633000360988
15,24.28678923014314
16,11.8891134606896
17,1.8984563795556824
18,3.761658210044025
2,1, 1, 1, 0,12,30.00,45.00,Tuesday
7,-3.7249999999999998
8,2477.3799538211926
9,1.0
10,602.01865277251
11,1.0
12,602.01865277251
13,2477.3799538211926
14,4.43401927913468
15,21.258340123035106
16,10.968197298372559
17,1.5850834975721
18,3.866297392219473
2,1, 1, 1, 0,12,45.00,60.00,Tuesday
7,-3.3
8,2020.487724967883
9,1.0
10,493.55004396206007
11,1.0
12,493.55004396206007
13,2020.487724967883
14,4.25062560284174
15,17.079570759719024
16,9.545095641806427
17,0.9777524213598099
18,3.9100816816347394
2,1, 1, 1, 0,13, 0.00,15.00,Tuesday
7,-3.0249999999999996
8,1660.5745456522932
9,1.0
10,412.335026418112
11,1.0
12,412.335026418112
13,1660.5745456522932
14,4.119697396325509
15,14.23465910017636
16,8.44444066547851
17,0.5645387002771258
18,3.9062370130743289
2,1, 1, 1, 0,13,15.00,30.00,Tuesday
7,-2.75
8,1209.7628797753724
9,1.0
10,305.94037763660148
11,1.0
12,305.94037763660148
13,1209.7628797753724
14,3.852208374956563
15,10.060783564823343
16,6.912362563197576
17,-0.11985230145046444
18,3.8622731187080374
2,1, 1, 1, 0,13,30.00,45.00,Tuesday
7,-2.475
8,1101.2949276393393
9,1.0
10,281.0763483922329
11,1.0
12,281.0763483922329
13,1101.2949276393393
14,3.8391985943055015
15,9.546236159764979
16,6.565161845663397
17,-0.03578049774637293
18,3.804927482106531
2,1, 1, 1, 0,13,45.00,60.00,Tuesday
7,-2.2
8,995.0717522408354
9,1.0
10,256.7721209415886
11,1.0
12,256.7721209415886
13,995.0717522408354
14,3.8083921523892605
15,8.940369330839797
16,6.27964621125318
17,0.07273137834749832
18,3.75633163166149
2,1, 1, 1, 0,14, 0.00,15.00,Tuesday
7,-1.9250000000000003
8,810.9411527544312
9,1.0
10,210.73276284570657
11,1.0
12,210.73276284570657
13,810.9411527544312
14,3.700123092545025
15,7.39149030580465
16,5.6133986552277979
17,-0.0802540616438705
18,3.713003709771011
2,1, 1, 1, 0,14,15.00,30.00,Tuesday
7,-1.6500000000000002
8,716.8870233280912
9,1.0
10,189.38488290342594
11,1.0
12,189.38488290342594
13,716.8870233280912
14,3.67425441016227
15,6.984838328933228
16,5.324848510732977
17,0.005641759412526426
18,3.6756545608242638
2,1, 1, 1, 0,14,30.00,45.00,Tuesday
7,-1.375
8,684.7513882747265
9,1.0
10,179.3940297802914
11,1.0
12,179.3940297802914
13,684.7513882747265
14,3.6761188857877107
15,7.106420174820242
16,5.23609219364414
17,0.211599527550959
18,3.6462049733577905
2,1, 1, 1, 0,14,45.00,60.00,Tuesday
7,-1.1
8,651.8043846946948
9,1.0
10,169.43349014176136
11,1.0
12,169.43349014176136
13,651.8043846946948
14,3.6760928174989977
15,7.203760829405823
16,5.144771187039169
17,0.4155651558177169
18,3.6242615469535668
2,1, 1, 1, 0,15, 0.00,15.00,Tuesday
7,-1.1
8,685.2590699226496
9,1.0
10,178.15692317953907
11,1.0
12,178.15692317953907
13,685.2590699226496
14,3.726384914023566
15,8.018709345118593
16,5.301189041506518
17,0.5615531488368788
18,3.6125386687751477
2,1, 1, 1, 0,15,15.00,30.00,Tuesday
7,-1.1
8,643.5222979781522
9,1.0
10,166.40516310952945
11,1.0
12,166.40516310952945
13,643.5222979781522
14,3.688680954814453
15,7.655024892270699
16,5.118114839775444
17,0.4740209887847868
18,3.604798428797492
2,1, 1, 1, 0,15,30.00,45.00,Tuesday
7,-1.1
8,540.8667575014309
9,1.0
10,140.8967369711617
11,1.0
12,140.8967369711617
13,540.8667575014309
14,3.5977642817702195
15,6.44715414903045
16,4.671774100172286
17,0.1970842567013733
18,3.5887178900930567
2,1, 1, 1, 0,15,45.00,60.00,Tuesday
7,-1.1
8,443.52621642190749
9,1.0
10,116.57355796743004
11,1.0
12,116.57355796743004
13,443.52621642190749
14,3.4969949301848288
15,5.2328506087806769
16,4.220574716151873
17,-0.09368977876346207
18,3.5576647992906009
2,1, 1, 1, 0,16, 0.00,15.00,Tuesday
7,-1.1
8,350.71121871296637
9,1.0
10,93.14939272689483
11,1.0
12,93.14939272689483
13,350.71121871296637
14,3.409356081400488
15,4.179964612054325
16,3.7858715337298465
17,-0.32049192368617698
18,3.512574912167803
2,1, 1, 1, 0,16,15.00,30.00,Tuesday
7,-1.1
8,216.90926295033695
9,1.0
10,57.94047897402063
11,1.0
12,57.94047897402063
13,216.90926295033695
14,3.2443291069962867
15,2.050073610958104
16,3.078506728403454
17,-0.7514978759131736
18,3.450011866678947
2,1, 1, 1, 0,16,30.00,45.00,Tuesday
7,-1.1
8,167.49925695678048
9,1.0
10,45.38251793443488
11,1.0
12,45.38251793443488
13,167.49925695678048
14,3.184102688066906
15,1.4333139615235707
16,2.8078453343603089
17,-0.8756823488491818
18,3.377922157265426
2,1, 1, 1, 0,16,45.00,60.00,Tuesday
7,-1.1
8,116.51653412766599
9,1.0
10,32.02625108222755
11,1.0
12,32.02625108222755
13,116.51653412766599
14,3.091126598337088
15,0.5622696096611115
16,2.5354454534287926
17,-1.0195461990349486
18,3.302797309559992
2,1, 1, 1, 0,17, 0.00,15.00,Tuesday
7,-1.1
8,63.75699116555957
9,1.0
10,17.762198626050539
11,1.0
12,17.762198626050539
13,63.75699116555957
14,2.9696737813424258
15,-0.6996382011291396
16,2.204418308668778
17,-1.3005755709516507
18,3.221785172630603
2,1, 1, 1, 0,17,15.00,30.00,Tuesday
7,-1.1
8,0.0
9,0.0
10,0.0
11,0.0
12,0.0
13,0.0
14,2.799853161900688
15,-2.5415434529273428
16,1.7943723344819774
17,-1.6548030586166079
18,3.125683582626418
2,1, 1, 1, 0,17,30.00,45.00,Tuesday
7,-1.1
8,0.0
9,0.0
10,0.0
11,0.0
12,0.0
13,0.0
14,2.7520654747111017
15,-2.682052828218134
16,1.704430504554466
17,-1.709616959632399
18,3.0303396215530786
2,1, 1, 1, 0,17,45.00,60.00,Tuesday
7,-1.1
8,0.0
9,0.0
10,0.0
11,0.0
12,0.0
13,0.0
14,2.68984893340033
15,-2.8814873205388329
16,1.6461791266686988
17,-1.7696063913775789
18,2.9498367831725518
2,1, 1, 1, 0,18, 0.00,15.00,Tuesday
7,-1.25
8,0.0
9,0.0
10,0.0
11,0.0
12,0.0
13,0.0
14,2.6392381849589889
15,-3.0282409105397445
16,1.5641971705965717
17,-1.9105469025784033
18,2.8864537287714886
2,1, 1, 1, 0,18,15.00,30.00,Tuesday
7,-1.4
8,0.0
9,0.0
10,0.0
11,0.0
12,0.0
13,0.0
14,2.5936916388931317
15,-3.1805970029603829
16,1.4955818183898373
17,-2.0404492888368965
18,2.83604915885221
2,1, 1, 1, 0,18,30.00,45.00,Tuesday
7,-1.5499999999999999
8,0.0
9,0.0
10,0.0
11,0.0
12,0.0
13,0.0
14,2.552646473953566
15,-3.3323380380306766
16,1.4311610439183369
17,-2.1698500482256124
18,2.793554808075149
2,1, 1, 1, 0,18,45.00,60.00,Tuesday
7,-1.7
8,0.0
9,0.0
10,0.0
11,0.0
12,0.0
13,0.0
14,2.515038656520187
15,-3.4842489979560824
16,1.3699788350890004
17,-2.2983003857958694
18,2.755491702466486
2,1, 1, 1, 0,19, 0.00,15.00,Tuesday
7,-1.825
8,0.0
9,0.0
10,0.0
11,0.0
12,0.0
13,0.0
14,2.503966081463764
15,-3.324010333411274
16,1.3368088553836515
17,-2.333485893660793
18,2.723586946612263
2,1, 1, 1, 0,19,15.00,30.00,Tuesday
7,-1.9500000000000002
8,0.0
9,0.0
10,0.0
11,0.0
12,0.0
13,0.0
14,2.4924778537988154
15,-3.2465614608496797
16,1.306025259102455
17,-2.390020350581949
18,2.6993148715572965
2,1, 1, 1, 0,19,30.00,45.00,Tuesday
7,-2.075
8,0.0
9,0.0
10,0.0
11,0.0
12,0.0
13,0.0
14,2.4759541572488668
15,-3.3174414288887039
16,1.269618726229055
17,-2.4805123926500984
18,2.6809199155450607
2,1, 1, 1, 0,19,45.00,60.00,Tuesday
7,-2.2
8,0.0
9,0.0
10,0.0
11,0.0
12,0.0
13,0.0
14,2.4627609891026429
15,-3.2858156975608256
16,1.240672541113895
17,-2.5516406591265197
18,2.665382842466235
2,1, 1, 1, 0,20, 0.00,15.00,Tuesday
7,-1.9250000000000003
8,0.0
9,0.0
10,0.0
11,0.0
12,0.0
13,0.0
14,2.4656964152824916
15,-2.9822745729022057
16,1.2972422033645899
17,-2.324450662635286
18,2.652714441084195
2,1, 1, 1, 0,20,15.00,30.00,Tuesday
7,-1.6500000000000002
8,0.0
9,0.0
10,0.0
11,0.0
12,0.0
13,0.0
14,2.469100923503605
15,-2.6819692959133247
16,1.354270036051389
17,-2.0886144856103785
18,2.6431888395528868
2,1, 1, 1, 0,20,30.00,45.00,Tuesday
7,-1.375
8,0.0
9,0.0
10,0.0
11,0.0
12,0.0
13,0.0
14,2.4740378856552716
15,-2.383052609772644
16,1.4128464573703355
17,-1.8510540042136655
18,2.6364214527539056
2,1, 1, 1, 0,20,45.00,60.00,Tuesday
7,-1.1
8,0.0
9,0.0
10,0.0
11,0.0
12,0.0
13,0.0
14,2.480446941379959
15,-2.085496465560449
16,1.4732460064321913
17,-1.611949567484885
18,2.6317842464769649
2,1, 1, 1, 0,21, 0.00,15.00,Tuesday
7,-1.25
8,0.0
9,0.0
10,0.0
11,0.0
12,0.0
13,0.0
14,2.4415974180501065
15,-2.3762897672722556
16,1.4192702289536783
17,-1.7614198479981838
18,2.622767621220963
2,1, 1, 1, 0,21,15.00,30.00,Tuesday
7,-1.4
8,0.0
9,0.0
10,0.0
11,0.0
12,0.0
13,0.0
14,2.4037721282563839
15,-2.597918009895014
16,1.3642514596998013
17,-1.8995381978942306
18,2.604599045740959
2,1, 1, 1, 0,21,30.00,45.00,Tuesday
7,-1.5499999999999999
8,0.0
9,0.0
10,0.0
11,0.0
12,0.0
13,0.0
14,2.351813696430022
15,-2.954899492734451
16,1.297240088288163
17,-2.0670188311244717
18,2.5758536272519789
2,1, 1, 1, 0,21,45.00,60.00,Tuesday
7,-1.7
8,0.0
9,0.0
10,0.0
11,0.0
12,0.0
13,0.0
14,2.2945410447350329
15,-3.421204436110211
16,1.2169048193016466
17,-2.263659013595941
18,2.5382582185233164
2,1, 1, 1, 0,22, 0.00,15.00,Tuesday
7,-1.5499999999999999
8,0.0
9,0.0
10,0.0
11,0.0
12,0.0
13,0.0
14,2.310664297712986
15,-2.916583735456669
16,1.2398491839499002
17,-2.0745789278924464
18,2.505651440113232
2,1, 1, 1, 0,22,15.00,30.00,Tuesday
7,-1.4
8,0.0
9,0.0
10,0.0
11,0.0
12,0.0
13,0.0
14,2.3184641279103546
15,-2.5748107717319934
16,1.2831920867654958
17,-1.9155643405235879
18,2.486026573014764
2,1, 1, 1, 0,22,30.00,45.00,Tuesday
7,-1.25
8,0.0
9,0.0
10,0.0
11,0.0
12,0.0
13,0.0
14,2.3238535392103185
15,-2.3495228610915679
16,1.317676936792168
17,-1.776279477717594
18,2.477559096040501
2,1, 1, 1, 0,22,45.00,60.00,Tuesday
7,-1.1
8,0.0
9,0.0
10,0.0
11,0.0
12,0.0
13,0.0
14,2.333039144111383
15,-2.05763596978289
16,1.3585968696804117
17,-1.6043575486359032
18,2.475199936285371
2,1, 1, 1, 0,23, 0.00,15.00,Tuesday
7,-1.25
8,0.0
9,0.0
10,0.0
11,0.0
12,0.0
13,0.0
14,2.294578670064975
15,-2.3613261616547018
16,1.2752907406349437
17,-1.8845262801230547
18,2.468838441613567
2,1, 1, 1, 0,23,15.00,30.00,Tuesday
7,-1.4
8,0.0
9,0.0
10,0.0
11,0.0
12,0.0
13,0.0
14,2.258163080835142
15,-2.6658538577426018
16,1.178892887740858
17,-2.1745041496495789
18,2.4528454192189428
2,1, 1, 1, 0,23,30.00,45.00,Tuesday
7,-1.5499999999999999
8,0.0
9,0.0
10,0.0
11,0.0
12,0.0
13,0.0
14,2.217904026114258
15,-2.970986631737155
16,1.0813094400343744
17,-2.4645033704410368
18,2.4276336891937695
2,1, 1, 1, 0,23,45.00,60.00,Tuesday
7,-1.7
8,0.0
9,0.0
10,0.0
11,0.0
12,0.0
13,0.0
14,2.173945258092155
15,-3.2764715977085525
16,0.9804546657702531
17,-2.755008554397591
18,2.3957971154849306
2,1, 1, 1, 0,24, 0.00,15.00,Tuesday
7,-1.7
8,0.0
9,0.0
10,0.0
11,0.0
12,0.0
13,0.0
14,2.147933281616878
15,-3.3302000619563367
16,0.9405621129446899
17,-2.814333776281046
18,2.3628067164417234
2,1, 1, 1, 0,24,15.00,30.00,Tuesday
7,-1.7
8,0.0
9,0.0
10,0.0
11,0.0
12,0.0
13,0.0
14,2.1188263798173549
15,-3.38472036311895
16,0.9046850674778852
17,-2.872933689702336
18,2.331799293415037
2,1, 1, 1, 0,24,30.00,45.00,Tuesday
7,-1.7
8,0.0
9,0.0
10,0.0
11,0.0
12,0.0
13,0.0
14,2.090466231001813
15,-3.439099232954729
16,0.8682178695489711
17,-2.931741001800617
18,2.3030216981537356
2,1, 1, 1, 0,24,45.00,60.00,Tuesday
7,-1.7
8,0.0
9,0.0
10,0.0
11,0.0
12,0.0
13,0.0
14,2.062745026489776
15,-3.493478044817272
16,0.8324397084152224
17,-2.9903262440005848
18,2.275656439038625
End of Data
 Number of Records Written=        1152
