Program Version,EnergyPlus, Version 9.5.0-de239b2e5f, YMD=2022.11.01 22:08
1,5,Environment Title[],Latitude[deg],Longitude[deg],Time Zone[],Elevation[m]
2,8,Day of Simulation[],Month[],Day of Month[],DST Indicator[1=yes 0=no],Hour[],StartMinute[],EndMinute[],DayType
3,5,Cumulative Day of Simulation[],Month[],Day of Month[],DST Indicator[1=yes 0=no],DayType  ! When Daily Report Variables Requested
4,2,Cumulative Days of Simulation[],Month[]  ! When Monthly Report Variables Requested
5,1,Cumulative Days of Simulation[] ! When Run Period Report Variables Requested
6,1,Calendar Year of Simulation[] ! When Annual Report Variables Requested
7,1,Environment,Site Outdoor Air Drybulb Temperature [C] !TimeStep
8,1,ZONE ONE,Zone Windows Total Transmitted Solar Radiation Rate [W] !TimeStep
9,1,ZN001:WALL001,Surface Outside Face Sunlit Fraction [] !TimeStep
10,1,ZN001:WALL001,Surface Outside Face Incident Solar Radiation Rate per Area [W/m2] !TimeStep
11,1,ZN001:WALL001:WIN001,Surface Outside Face Sunlit Fraction [] !TimeStep
12,1,ZN001:WALL001:WIN001,Surface Outside Face Incident Solar Radiation Rate per Area [W/m2] !TimeStep
13,1,ZN001:WALL001:WIN001,Surface Window Transmitted Solar Radiation Rate [W] !TimeStep
14,1,ZN001:WALL001,Surface Inside Face Temperature [C] !TimeStep
15,1,ZN001:WALL001,Surface Outside Face Temperature [C] !TimeStep
16,1,ZN001:WALL001:WIN001,Surface Inside Face Temperature [C] !TimeStep
17,1,ZN001:WALL001:WIN001,Surface Outside Face Temperature [C] !TimeStep
18,1,ZONE ONE,Zone Mean Air Temperature [C] !TimeStep
End of Data Dictionary
1,RUN PERIOD 1,  41.98, -87.92,  -6.00, 201.00
2,1, 1, 1, 0, 1, 0.00,15.00,Tuesday
7,-4.324999999999999
8,0.0
9,0.0
10,0.0
11,0.0
12,0.0
13,0.0
14,2.2601221967247024
15,-5.962796257434698
16,0.5817469323346813
17,-5.000883770889743
18,2.626818482468434
2,1, 1, 1, 0, 1,15.00,30.00,Tuesday
7,-6.949999999999999
8,0.0
9,0.0
10,0.0
11,0.0
12,0.0
13,0.0
14,2.085014537967184
15,-8.4306689264641
16,-0.034118682658458968
17,-7.0886231292423649
18,2.5405184008051977
2,1, 1, 1, 0, 1,30.00,45.00,Tuesday
7,-9.575
8,0.0
9,0.0
10,0.0
11,0.0
12,0.0
13,0.0
14,1.8889544964876753
15,-10.906890329457319
16,-0.65228107545272
17,-9.182950440507569
18,2.4213999836684749
2,1, 1, 1, 0, 1,45.00,60.00,Tuesday
7,-12.2
8,0.0
9,0.0
10,0.0
11,0.0
12,0.0
13,0.0
14,1.6773225015498977
15,-13.389623158346545
16,-1.2844312171012576
17,-11.285465532144145
18,2.278787439010765
2,1, 1, 1, 0, 2, 0.00,15.00,Tuesday
7,-12.075
8,0.0
9,0.0
10,0.0
11,0.0
12,0.0
13,0.0
14,1.6201242071343046
15,-13.191156775451307
16,-1.3465834823792307
17,-11.136560579647267
18,2.1497666811979
2,1, 1, 1, 0, 2,15.00,30.00,Tuesday
7,-11.95
8,0.0
9,0.0
10,0.0
11,0.0
12,0.0
13,0.0
14,1.5483560109459119
15,-13.013876528011643
16,-1.3700364489686195
17,-10.989061141495029
18,2.052229220277224
2,1, 1, 1, 0, 2,30.00,45.00,Tuesday
7,-11.825
8,0.0
9,0.0
10,0.0
11,0.0
12,0.0
13,0.0
14,1.4935310568486347
15,-12.83540309206259
16,-1.3884706321859995
17,-10.8411840567706
18,1.981758763677508
2,1, 1, 1, 0, 2,45.00,60.00,Tuesday
7,-11.7
8,0.0
9,0.0
10,0.0
11,0.0
12,0.0
13,0.0
14,1.4500713659323293
15,-12.65699136390389
16,-1.3942962991146715
17,-10.69064637202689
18,1.927753720240948
2,1, 1, 1, 0, 3, 0.00,15.00,Tuesday
7,-11.549999999999999
8,0.0
9,0.0
10,0.0
11,0.0
12,0.0
13,0.0
14,1.4083242325351777
15,-12.532337564358058
16,-1.392275820307134
17,-10.560541444889737
18,1.8812173883520174
2,1, 1, 1, 0, 3,15.00,30.00,Tuesday
7,-11.399999999999999
8,0.0
9,0.0
10,0.0
11,0.0
12,0.0
13,0.0
14,1.370029250994374
15,-12.409110884526858
16,-1.391055010096693
17,-10.422185085897582
18,1.8374348352154005
2,1, 1, 1, 0, 3,30.00,45.00,Tuesday
7,-11.25
8,0.0
9,0.0
10,0.0
11,0.0
12,0.0
13,0.0
14,1.332764329880301
15,-12.287483557935545
16,-1.3883522311200523
17,-10.283050541767409
18,1.7948559696578115
2,1, 1, 1, 0, 3,45.00,60.00,Tuesday
7,-11.1
8,0.0
9,0.0
10,0.0
11,0.0
12,0.0
13,0.0
14,1.2960490023203005
15,-12.16751606028607
16,-1.3850051461039357
17,-10.144123977922505
18,1.7531773820177279
2,1, 1, 1, 0, 4, 0.00,15.00,Tuesday
7,-11.1
8,0.0
9,0.0
10,0.0
11,0.0
12,0.0
13,0.0
14,1.2557454138506384
15,-12.137039185011089
16,-1.4290723374076038
17,-10.160264971158313
18,1.711543593962998
2,1, 1, 1, 0, 4,15.00,30.00,Tuesday
7,-11.1
8,0.0
9,0.0
10,0.0
11,0.0
12,0.0
13,0.0
14,1.2158462005578886
15,-12.107742606940864
16,-1.4678053433252672
17,-10.183471653518155
18,1.669616425163958
2,1, 1, 1, 0, 4,30.00,45.00,Tuesday
7,-11.1
8,0.0
9,0.0
10,0.0
11,0.0
12,0.0
13,0.0
14,1.1758067685695908
15,-12.080075271740498
16,-1.5058196452257562
17,-10.206638890521447
18,1.6274715337193069
2,1, 1, 1, 0, 4,45.00,60.00,Tuesday
7,-11.1
8,0.0
9,0.0
10,0.0
11,0.0
12,0.0
13,0.0
14,1.135706352259324
15,-12.053903472130026
16,-1.543642163118534
17,-10.22912547015585
18,1.5852727124031834
2,1, 1, 1, 0, 5, 0.00,15.00,Tuesday
7,-10.975
8,0.0
9,0.0
10,0.0
11,0.0
12,0.0
13,0.0
14,1.1012980522053307
15,-11.931690060642565
16,-1.546678357258429
17,-10.140729844595058
18,1.5441227906689919
2,1, 1, 1, 0, 5,15.00,30.00,Tuesday
7,-10.85
8,0.0
9,0.0
10,0.0
11,0.0
12,0.0
13,0.0
14,1.0670759743147183
15,-11.80957037428054
16,-1.5515184159417004
17,-10.044523742212846
18,1.5044914266808419
2,1, 1, 1, 0, 5,30.00,45.00,Tuesday
7,-10.725
8,0.0
9,0.0
10,0.0
11,0.0
12,0.0
13,0.0
14,1.0338104078935982
15,-11.687430058220962
16,-1.5561078019837283
17,-9.94748472025094
18,1.4661848275066112
2,1, 1, 1, 0, 5,45.00,60.00,Tuesday
7,-10.6
8,0.0
9,0.0
10,0.0
11,0.0
12,0.0
13,0.0
14,1.0013548357205362
15,-11.565299635432682
16,-1.5599502009370099
17,-9.850220091383335
18,1.4288527721347418
2,1, 1, 1, 0, 6, 0.00,15.00,Tuesday
7,-10.6
8,0.0
9,0.0
10,0.0
11,0.0
12,0.0
13,0.0
14,0.9616222737349338
15,-11.566112856959116
16,-1.5908140958118225
17,-9.852354649085669
18,1.3910128773322608
2,1, 1, 1, 0, 6,15.00,30.00,Tuesday
7,-10.6
8,0.0
9,0.0
10,0.0
11,0.0
12,0.0
13,0.0
14,0.9225043399557491
15,-11.566841098287253
16,-1.6233996944908996
17,-9.85799684620963
18,1.3518753369810764
2,1, 1, 1, 0, 6,30.00,45.00,Tuesday
7,-10.6
8,0.0
9,0.0
10,0.0
11,0.0
12,0.0
13,0.0
14,0.8828600098098228
15,-11.567613080468531
16,-1.655911200771584
17,-9.864439090479437
18,1.311625507549865
2,1, 1, 1, 0, 6,45.00,60.00,Tuesday
7,-10.6
8,0.0
9,0.0
10,0.0
11,0.0
12,0.0
13,0.0
14,0.8428604048973233
15,-11.568385314955299
16,-1.6887210012058063
17,-9.871224240068387
18,1.270747125308517
2,1, 1, 1, 0, 7, 0.00,15.00,Tuesday
7,-10.6
8,0.0
9,0.0
10,0.0
11,0.0
12,0.0
13,0.0
14,0.8049673537772417
15,-11.543253719102689
16,-1.7278084948267179
17,-9.887697512375724
18,1.2298748924886299
2,1, 1, 1, 0, 7,15.00,30.00,Tuesday
7,-10.6
8,0.0
9,0.0
10,0.0
11,0.0
12,0.0
13,0.0
14,0.7668901256390198
15,-11.519427505782876
16,-1.7631322340768066
17,-9.905801518981207
18,1.1894531619520122
2,1, 1, 1, 0, 7,30.00,45.00,Tuesday
7,-10.6
8,0.0
9,0.0
10,0.0
11,0.0
12,0.0
13,0.0
14,0.7290603766848819
15,-11.49680744851197
16,-1.7980325611143826
17,-9.923621381874114
18,1.1495267044372546
2,1, 1, 1, 0, 7,45.00,60.00,Tuesday
7,-10.6
8,0.0
9,0.0
10,0.0
11,0.0
12,0.0
13,0.0
14,0.6915191971498061
15,-11.475322813308706
16,-1.8325185775362343
17,-9.940843197598895
18,1.1099896511221493
2,1, 1, 1, 0, 8, 0.00,15.00,Tuesday
7,-10.45
8,0.0
9,0.0
10,0.0
11,0.0
12,0.0
13,0.0
14,0.6531103807505132
15,-11.427377696940815
16,-1.8471704985756788
17,-9.896305299949973
18,1.0704156603837574
2,1, 1, 1, 0, 8,15.00,30.00,Tuesday
7,-10.3
8,88.46537908092637
9,1.0
10,22.819555959623899
11,1.0
12,22.819555959623899
13,88.46537908092637
14,0.7227564653440093
15,-9.754450014888464
16,-1.4556893134322309
17,-9.511505001473893
18,1.0462481583903834
2,1, 1, 1, 0, 8,30.00,45.00,Tuesday
7,-10.15
8,435.87841701325359
9,1.0
10,109.75755355442667
11,1.0
12,109.75755355442667
13,435.87841701325359
14,1.08622577608852
15,-3.3936857770439206
16,0.15777107285646253
17,-8.151383858112581
18,1.0796791822434429
2,1, 1, 1, 0, 8,45.00,60.00,Tuesday
7,-10.0
8,796.7844770656018
9,1.0
10,195.8764694434918
11,1.0
12,195.8764694434918
13,796.7844770656018
14,1.565084167106329
15,3.116778374299357
16,1.9286769084767457
17,-6.797853606700585
18,1.1750072338255813
2,1, 1, 1, 0, 9, 0.00,15.00,Tuesday
7,-9.725
8,1160.5108370481162
9,1.0
10,278.97248314719988
11,1.0
12,278.97248314719988
13,1160.5108370481162
14,1.8957195550397639
15,8.273761685469405
16,3.496372389610258
17,-5.632294684968656
18,1.3196922719045448
2,1, 1, 1, 0, 9,15.00,30.00,Tuesday
7,-9.45
8,1547.8580198838268
9,1.0
10,364.91995730569456
11,1.0
12,364.91995730569456
13,1547.8580198838268
14,2.2822003229581089
15,13.358192097561485
16,5.041745937053861
17,-4.481488104964114
18,1.5055124289750022
2,1, 1, 1, 0, 9,30.00,45.00,Tuesday
7,-9.175
8,1809.139831564009
9,1.0
10,420.35879993239237
11,1.0
12,420.35879993239237
13,1809.139831564009
14,2.544856264192162
15,16.11689020021639
16,6.057808598813665
17,-3.782153928486707
18,1.7128143791510183
2,1, 1, 1, 0, 9,45.00,60.00,Tuesday
7,-8.9
8,2081.6905740370859
9,1.0
10,478.00138373643099
11,1.0
12,478.00138373643099
13,2081.6905740370859
14,2.8553267214375159
15,19.11246741865912
16,7.077204448008217
17,-3.0556226445461336
18,1.9321265944456577
2,1, 1, 1, 0,10, 0.00,15.00,Tuesday
7,-8.350000000000002
8,2361.1567583764874
9,1.0
10,536.9185644770597
11,1.0
12,536.9185644770597
13,2361.1567583764874
14,3.1072319485441319
15,20.232413589314427
16,8.121142787946042
17,-2.311206480523083
18,2.1668046628321995
2,1, 1, 1, 0,10,15.00,30.00,Tuesday
7,-7.800000000000001
8,2650.938597134051
9,1.0
10,598.0969199229219
11,1.0
12,598.0969199229219
13,2650.938597134051
14,3.3843041118443999
15,21.48723696454454
16,9.185659907171442
17,-1.5698847859684975
18,2.4197331461305846
2,1, 1, 1, 0,10,30.00,45.00,Tuesday
7,-7.25
8,2844.364595201233
9,1.0
10,637.6133352894237
11,1.0
12,637.6133352894237
13,2844.364595201233
14,3.5932270688031209
15,21.548618562719424
16,9.931588382965402
17,-1.0668431971522523
18,2.6763297285295359
2,1, 1, 1, 0,10,45.00,60.00,Tuesday
7,-6.7
8,3035.01520662489
9,1.0
10,676.6412284283772
11,1.0
12,676.6412284283772
13,3035.01520662489
14,3.8202012118122199
15,21.710127719374797
16,10.653319768918209
17,-0.567515651837823
18,2.9264402170866399
2,1, 1, 1, 0,11, 0.00,15.00,Tuesday
7,-6.275
8,3222.160665677674
9,1.0
10,715.0112779846514
11,1.0
12,715.0112779846514
13,3222.160665677674
14,4.123732988195312
15,23.807582275674858
16,11.41615084632565
17,0.1800581891964157
18,3.173232984657882
2,1, 1, 1, 0,11,15.00,30.00,Tuesday
7,-5.85
8,3404.7667711662527
9,1.0
10,752.5077794605232
11,1.0
12,752.5077794605232
13,3404.7667711662527
14,4.413813432909489
15,25.74251653736887
16,12.166825656455615
17,0.9053340967574286
18,3.421521613072218
2,1, 1, 1, 0,11,30.00,45.00,Tuesday
7,-5.425
8,3354.601726506162
9,1.0
10,742.5988714321785
11,1.0
12,742.5988714321785
13,3354.601726506162
14,4.578041442607385
15,25.594331949980626
16,12.269175287713552
17,1.1816644270992356
18,3.655285734726592
2,1, 1, 1, 0,11,45.00,60.00,Tuesday
7,-5.0
8,3280.700920414808
9,1.0
10,727.8169025450712
11,1.0
12,727.8169025450712
13,3280.700920414808
14,4.73802008988303
15,25.364919637364836
16,12.280338223074864
17,1.4219516927998939
18,3.8631903392190787
2,1, 1, 1, 0,12, 0.00,15.00,Tuesday
7,-4.575
8,3152.7908554217426
9,1.0
10,700.3759009170325
11,1.0
12,700.3759009170325
13,3152.7908554217426
14,4.846296950954294
15,24.622140858502119
16,12.117973990831615
17,1.588090487481395
18,4.039635900888818
2,1, 1, 1, 0,12,15.00,30.00,Tuesday
7,-4.15
8,3055.485575710497
9,1.0
10,681.6705029034473
11,1.0
12,681.6705029034473
13,3055.485575710497
14,4.973954563111947
15,24.291506381188403
16,12.061193691368658
17,1.8356656257331566
18,4.192030729082997
2,1, 1, 1, 0,12,30.00,45.00,Tuesday
7,-3.7249999999999998
8,2678.41342373029
9,1.0
10,602.01865277251
11,1.0
12,602.01865277251
13,2678.41342373029
14,4.887106041089237
15,21.263087304419206
16,11.160134516429992
17,1.533774968247826
18,4.301446455133715
2,1, 1, 1, 0,12,45.00,60.00,Tuesday
7,-3.3
8,2185.0952133611629
9,1.0
10,493.55004396206007
11,1.0
12,493.55004396206007
13,2185.0952133611629
14,4.703217651063456
15,17.084394433331608
16,9.76283930491826
17,0.9431725972700633
18,4.348326474516008
2,1, 1, 1, 0,13, 0.00,15.00,Tuesday
7,-3.0249999999999996
8,1797.630885869773
9,1.0
10,412.335026418112
11,1.0
12,412.335026418112
13,1797.630885869773
14,4.571500706956272
15,14.239594247918296
16,8.678283417421313
17,0.5408908009350171
18,4.346521533823967
2,1, 1, 1, 0,13,15.00,30.00,Tuesday
7,-2.75
8,1311.0926163742059
9,1.0
10,305.94037763660148
11,1.0
12,305.94037763660148
13,1311.0926163742059
14,4.301783293518028
15,10.065840844020942
16,7.169859252794993
17,-0.12708630902409369
18,4.302780274678549
2,1, 1, 1, 0,13,30.00,45.00,Tuesday
7,-2.475
8,1194.264194473495
9,1.0
10,281.0763483922329
11,1.0
12,281.0763483922329
13,1194.264194473495
14,4.2844221266544209
15,9.54901923710648
16,6.827125899516432
17,-0.03923378146726009
18,4.246349616709567
2,1, 1, 1, 0,13,45.00,60.00,Tuesday
7,-2.2
8,1079.8582631128787
9,1.0
10,256.7721209415886
11,1.0
12,256.7721209415886
13,1079.8582631128787
14,4.253699840239076
15,8.94565677605065
16,6.544902801923968
17,0.07269130967995352
18,4.198936570467454
2,1, 1, 1, 0,14, 0.00,15.00,Tuesday
7,-1.9250000000000003
8,880.4780417899096
9,1.0
10,210.73276284570657
11,1.0
12,210.73276284570657
13,880.4780417899096
14,4.142116142651092
15,7.3968496634497999
16,5.89100270215522
17,-0.07145310045802944
18,4.156698527339446
2,1, 1, 1, 0,14,15.00,30.00,Tuesday
7,-1.6500000000000002
8,779.1741629824956
9,1.0
10,189.38488290342594
11,1.0
12,189.38488290342594
13,779.1741629824956
14,4.115872799015647
15,6.990403354994565
16,5.605508189989791
17,0.01797773411306025
18,4.119943804820709
2,1, 1, 1, 0,14,30.00,45.00,Tuesday
7,-1.375
8,743.9788844567696
9,1.0
10,179.3940297802914
11,1.0
12,179.3940297802914
13,743.9788844567696
14,4.1168708180371029
15,7.1121403350072
16,5.521449060143084
17,0.22734357988883859
18,4.09060552919397
2,1, 1, 1, 0,14,45.00,60.00,Tuesday
7,-1.1
8,708.0005797286203
9,1.0
10,169.43349014176136
11,1.0
12,169.43349014176136
13,708.0005797286203
14,4.116051999660095
15,7.209731806331299
16,5.43402235441539
17,0.4347026506655425
18,4.068428864280428
2,1, 1, 1, 0,15, 0.00,15.00,Tuesday
7,-1.1
8,744.509526842534
9,1.0
10,178.15692317953907
11,1.0
12,178.15692317953907
13,744.509526842534
14,4.167536180356565
15,8.02497841463514
16,5.588188242803881
17,0.5794035279919854
18,4.056245288962944
2,1, 1, 1, 0,15,15.00,30.00,Tuesday
7,-1.1
8,699.1973500244665
9,1.0
10,166.40516310952945
11,1.0
12,166.40516310952945
13,699.1973500244665
14,4.12861894462046
15,7.66137054125916
16,5.409824371846582
17,0.49560819394611146
18,4.048001772119082
2,1, 1, 1, 0,15,30.00,45.00,Tuesday
7,-1.1
8,588.0669876031889
9,1.0
10,140.8967369711617
11,1.0
12,140.8967369711617
13,588.0669876031889
14,4.034965296679804
15,6.453645945656194
16,4.968601931170269
17,0.2245115619246576
18,4.03164762406069
2,1, 1, 1, 0,15,45.00,60.00,Tuesday
7,-1.1
8,482.6044528208407
9,1.0
10,116.57355796743004
11,1.0
12,116.57355796743004
13,482.6044528208407
14,3.9288991493372769
15,5.237448287253269
16,4.520603500476113
17,-0.06049512140850766
18,4.000226124606468
2,1, 1, 1, 0,16, 0.00,15.00,Tuesday
7,-1.1
8,381.92676652141986
9,1.0
10,93.14939272689483
11,1.0
12,93.14939272689483
13,381.92676652141986
14,3.843381630389128
15,4.187908591113455
16,4.08604456841158
17,-0.2812642892209851
18,3.954469810023956
2,1, 1, 1, 0,16,15.00,30.00,Tuesday
7,-1.1
8,236.41058631105327
9,1.0
10,57.94047897402063
11,1.0
12,57.94047897402063
13,236.41058631105327
14,3.6753198292033066
15,2.058143427737098
16,3.4000075385549168
17,-0.7013529776899077
18,3.8905379958236159
2,1, 1, 1, 0,16,30.00,45.00,Tuesday
7,-1.1
8,182.72767004288233
9,1.0
10,45.38251793443488
11,1.0
12,45.38251793443488
13,182.72767004288233
14,3.6136830604986809
15,1.4420881787324905
16,3.134582424683856
17,-0.814628087206188
18,3.81644531276557
2,1, 1, 1, 0,16,45.00,60.00,Tuesday
7,-1.1
8,127.21365373096674
9,1.0
10,32.02625108222755
11,1.0
12,32.02625108222755
13,127.21365373096674
14,3.5187200568010588
15,0.5719045829351336
16,2.8690769032720029
17,-0.9483549071367179
18,3.73892078066671
2,1, 1, 1, 0,17, 0.00,15.00,Tuesday
7,-1.1
8,69.6499974587862
9,1.0
10,17.762198626050539
11,1.0
12,17.762198626050539
13,69.6499974587862
14,3.3951855248883877
15,-0.688839583181286
16,2.5461958283566448
17,-1.2164556760903338
18,3.6549496520361606
2,1, 1, 1, 0,17,15.00,30.00,Tuesday
7,-1.1
8,0.0
9,0.0
10,0.0
11,0.0
12,0.0
13,0.0
14,3.222669981011929
15,-2.5302956096076159
16,2.1427007202013899
17,-1.5675009060139474
18,3.5572409985157704
2,1, 1, 1, 0,17,30.00,45.00,Tuesday
7,-1.1
8,0.0
9,0.0
10,0.0
11,0.0
12,0.0
13,0.0
14,3.1737440901252764
15,-2.6702885860623826
16,2.0524130055583784
17,-1.6178400640064866
18,3.4613426241536278
2,1, 1, 1, 0,17,45.00,60.00,Tuesday
7,-1.1
8,0.0
9,0.0
10,0.0
11,0.0
12,0.0
13,0.0
14,3.110576242014961
15,-2.8687830710609174
16,1.9946735042219644
17,-1.6726877842519912
18,3.380723824923998
2,1, 1, 1, 0,18, 0.00,15.00,Tuesday
7,-1.25
8,0.0
9,0.0
10,0.0
11,0.0
12,0.0
13,0.0
14,3.0591012651376339
15,-3.015647527163091
16,1.9117155653002556
17,-1.8138455947907347
18,3.3171897377643897
2,1, 1, 1, 0,18,15.00,30.00,Tuesday
7,-1.4
8,0.0
9,0.0
10,0.0
11,0.0
12,0.0
13,0.0
14,3.0127031934145864
15,-3.1680075642352749
16,1.8426180529844488
17,-1.943563081512707
18,3.266404881782334
2,1, 1, 1, 0,18,30.00,45.00,Tuesday
7,-1.5499999999999999
8,0.0
9,0.0
10,0.0
11,0.0
12,0.0
13,0.0
14,2.9707393620160498
15,-3.3197712245739816
16,1.7776775478649825
17,-2.072811723445909
18,3.2232874749191215
2,1, 1, 1, 0,18,45.00,60.00,Tuesday
7,-1.7
8,0.0
9,0.0
10,0.0
11,0.0
12,0.0
13,0.0
14,2.9311334442347718
15,-3.471705010947624
16,1.7159173953358505
17,-2.201108745436386
18,3.1843044369440056
2,1, 1, 1, 0,19, 0.00,15.00,Tuesday
7,-1.825
8,0.0
9,0.0
10,0.0
11,0.0
12,0.0
13,0.0
14,2.919806109572338
15,-3.312840325209318
16,1.6794818826128904
17,-2.244111430249177
18,3.151383223856168
2,1, 1, 1, 0,19,15.00,30.00,Tuesday
7,-1.9500000000000002
8,0.0
9,0.0
10,0.0
11,0.0
12,0.0
13,0.0
14,2.906884478444287
15,-3.236725186952478
16,1.6461218949739305
17,-2.3076789106862636
18,3.126069340788316
2,1, 1, 1, 0,19,30.00,45.00,Tuesday
7,-2.075
8,0.0
9,0.0
10,0.0
11,0.0
12,0.0
13,0.0
14,2.8890682252304535
15,-3.30794382911672
16,1.60850576904636
17,-2.4001666752005237
18,3.1065789221139359
2,1, 1, 1, 0,19,45.00,60.00,Tuesday
7,-2.2
8,0.0
9,0.0
10,0.0
11,0.0
12,0.0
13,0.0
14,2.8734730538901727
15,-3.2774418626601378
16,1.5768569185756292
17,-2.4772785029782655
18,3.0897416097873378
2,1, 1, 1, 0,20, 0.00,15.00,Tuesday
7,-1.9250000000000003
8,0.0
9,0.0
10,0.0
11,0.0
12,0.0
13,0.0
14,2.8761601835403467
15,-2.974141895586791
16,1.6313018441687178
17,-2.2526093629909385
18,3.0757650206188966
2,1, 1, 1, 0,20,15.00,30.00,Tuesday
7,-1.6500000000000002
8,0.0
9,0.0
10,0.0
11,0.0
12,0.0
13,0.0
14,2.8781895858187136
15,-2.6741458910152744
16,1.6868370130777067
17,-2.018454822137528
18,3.065011411233198
2,1, 1, 1, 0,20,30.00,45.00,Tuesday
7,-1.375
8,0.0
9,0.0
10,0.0
11,0.0
12,0.0
13,0.0
14,2.8817330675793397
15,-2.375471751083381
16,1.7436301250780844
17,-1.7825516405763438
18,3.0570483751277059
2,1, 1, 1, 0,20,45.00,60.00,Tuesday
7,-1.1
8,0.0
9,0.0
10,0.0
11,0.0
12,0.0
13,0.0
14,2.886761908643021
15,-2.0781450954089037
16,1.8022565226933694
17,-1.5450288666554002
18,3.0512007692730958
2,1, 1, 1, 0,21, 0.00,15.00,Tuesday
7,-1.25
8,0.0
9,0.0
10,0.0
11,0.0
12,0.0
13,0.0
14,2.8467399757052718
15,-2.367764246179231
16,1.7496134332546945
17,-1.688263058635414
18,3.0408743576030048
2,1, 1, 1, 0,21,15.00,30.00,Tuesday
7,-1.4
8,0.0
9,0.0
10,0.0
11,0.0
12,0.0
13,0.0
14,2.8080538462791737
15,-2.5887715452448036
16,1.6946417877104523
17,-1.8230410328045537
18,3.0213233565704624
2,1, 1, 1, 0,21,30.00,45.00,Tuesday
7,-1.5499999999999999
8,0.0
9,0.0
10,0.0
11,0.0
12,0.0
13,0.0
14,2.7552597474706705
15,-2.9442390728552429
16,1.629304571901173
17,-1.982570185187683
18,2.9912247897280799
2,1, 1, 1, 0,21,45.00,60.00,Tuesday
7,-1.7
8,0.0
9,0.0
10,0.0
11,0.0
12,0.0
13,0.0
14,2.697108922601518
15,-3.4088339044623394
16,1.5507090108819739
17,-2.168960046519942
18,2.9523792883776167
2,1, 1, 1, 0,22, 0.00,15.00,Tuesday
7,-1.5499999999999999
8,0.0
9,0.0
10,0.0
11,0.0
12,0.0
13,0.0
14,2.7119382449517008
15,-2.906261262433442
16,1.5725373469064153
17,-1.9980486578898536
18,2.9187149180858205
2,1, 1, 1, 0,22,15.00,30.00,Tuesday
7,-1.4
8,0.0
9,0.0
10,0.0
11,0.0
12,0.0
13,0.0
14,2.7181495213001067
15,-2.5658845722912746
16,1.6095838862617598
17,-1.8402940599153226
18,2.8980614561968727
2,1, 1, 1, 0,22,30.00,45.00,Tuesday
7,-1.25
8,0.0
9,0.0
10,0.0
11,0.0
12,0.0
13,0.0
14,2.7220511666067468
15,-2.3412240751869115
16,1.6416596521928569
17,-1.704233917488068
18,2.888507332496955
2,1, 1, 1, 0,22,45.00,60.00,Tuesday
7,-1.1
8,0.0
9,0.0
10,0.0
11,0.0
12,0.0
13,0.0
14,2.729819055621965
15,-2.050463659924903
16,1.683265111987339
17,-1.547641698332427
18,2.885020791871973
2,1, 1, 1, 0,23, 0.00,15.00,Tuesday
7,-1.25
8,0.0
9,0.0
10,0.0
11,0.0
12,0.0
13,0.0
14,2.6900982252489604
15,-2.3541012291958629
16,1.5960114974508315
17,-1.8193773907784135
18,2.8773321281209895
2,1, 1, 1, 0,23,15.00,30.00,Tuesday
7,-1.4
8,0.0
9,0.0
10,0.0
11,0.0
12,0.0
13,0.0
14,2.6527698967079997
15,-2.6586294520885156
16,1.498850578902875
17,-2.1094807142520155
18,2.859870180898492
2,1, 1, 1, 0,23,30.00,45.00,Tuesday
7,-1.5499999999999999
8,0.0
9,0.0
10,0.0
11,0.0
12,0.0
13,0.0
14,2.6114393459277025
15,-2.963779916935296
16,1.400696109853584
17,-2.399739273004286
18,2.833182764790563
2,1, 1, 1, 0,23,45.00,60.00,Tuesday
7,-1.7
8,0.0
9,0.0
10,0.0
11,0.0
12,0.0
13,0.0
14,2.5663684678535496
15,-3.269279505332975
16,1.299189607177368
17,-2.6905130797741778
18,2.799942918085401
2,1, 1, 1, 0,24, 0.00,15.00,Tuesday
7,-1.7
8,0.0
9,0.0
10,0.0
11,0.0
12,0.0
13,0.0
14,2.539136232603541
15,-3.323046184798783
16,1.2582884727603415
17,-2.7502238347459526
18,2.7656608951255206
2,1, 1, 1, 0,24,15.00,30.00,Tuesday
7,-1.7
8,0.0
9,0.0
10,0.0
11,0.0
12,0.0
13,0.0
14,2.508810313501162
15,-3.3775870798332066
16,1.221428913191744
17,-2.8090966488030064
18,2.7334492192785886
2,1, 1, 1, 0,24,30.00,45.00,Tuesday
7,-1.7
8,0.0
9,0.0
10,0.0
11,0.0
12,0.0
13,0.0
14,2.4792793899042686
15,-3.431985407955183
16,1.1840034457866296
17,-2.868161371972633
18,2.703508706282119
2,1, 1, 1, 0,24,45.00,60.00,Tuesday
7,-1.7
8,0.0
9,0.0
10,0.0
11,0.0
12,0.0
13,0.0
14,2.4504101298459974
15,-3.4863842843358334
16,1.1472967001799362
17,-2.9269950363035379
18,2.674989858090444
End of Data
 Number of Records Written=        1152
