Program Version,EnergyPlus, Version 9.5.0-de239b2e5f, YMD=2022.10.12 15:39
1,5,Environment Title[],Latitude[deg],Longitude[deg],Time Zone[],Elevation[m]
2,8,Day of Simulation[],Month[],Day of Month[],DST Indicator[1=yes 0=no],Hour[],StartMinute[],EndMinute[],DayType
3,5,Cumulative Day of Simulation[],Month[],Day of Month[],DST Indicator[1=yes 0=no],DayType  ! When Daily Report Variables Requested
4,2,Cumulative Days of Simulation[],Month[]  ! When Monthly Report Variables Requested
5,1,Cumulative Days of Simulation[] ! When Run Period Report Variables Requested
6,1,Calendar Year of Simulation[] ! When Annual Report Variables Requested
7,1,Environment,Site Outdoor Air Drybulb Temperature [C] !TimeStep
8,1,ZONE ONE,Zone Windows Total Transmitted Solar Radiation Rate [W] !TimeStep
9,1,ZN001:WALL001,Surface Outside Face Sunlit Fraction [] !TimeStep
10,1,ZN001:WALL001,Surface Outside Face Incident Solar Radiation Rate per Area [W/m2] !TimeStep
11,1,ZN001:WALL001:WIN001,Surface Outside Face Sunlit Fraction [] !TimeStep
12,1,ZN001:WALL001:WIN001,Surface Outside Face Incident Solar Radiation Rate per Area [W/m2] !TimeStep
13,1,ZN001:WALL001:WIN001,Surface Window Transmitted Solar Radiation Rate [W] !TimeStep
14,1,ZN001:WALL001,Surface Inside Face Temperature [C] !TimeStep
15,1,ZN001:WALL001,Surface Outside Face Temperature [C] !TimeStep
16,1,ZN001:WALL001:WIN001,Surface Inside Face Temperature [C] !TimeStep
17,1,ZN001:WALL001:WIN001,Surface Outside Face Temperature [C] !TimeStep
18,1,ZONE ONE,Zone Mean Air Temperature [C] !TimeStep
End of Data Dictionary
1,RUN PERIOD 1,  41.98, -87.92,  -6.00, 201.00
2,1, 1, 1, 0, 1, 0.00,15.00,Tuesday
7,-4.324999999999999
8,0.0
9,0.0
10,0.0
11,0.0
12,0.0
13,0.0
14,9.344582084707126
15,-5.833869016793094
16,6.444368489449744
17,-3.8039394923950455
18,9.887983804322966
2,1, 1, 1, 0, 1,15.00,30.00,Tuesday
7,-6.949999999999999
8,0.0
9,0.0
10,0.0
11,0.0
12,0.0
13,0.0
14,9.156446435604469
15,-8.300667383049177
16,5.845665858825839
17,-5.891202852615152
18,9.778871102955862
2,1, 1, 1, 0, 1,30.00,45.00,Tuesday
7,-9.575
8,0.0
9,0.0
10,0.0
11,0.0
12,0.0
13,0.0
14,8.947981621278265
15,-10.775377739942908
16,5.239460135411605
17,-7.984463083221328
18,9.638812963334955
2,1, 1, 1, 0, 1,45.00,60.00,Tuesday
7,-12.2
8,0.0
9,0.0
10,0.0
11,0.0
12,0.0
13,0.0
14,8.723713907808295
15,-13.256740532133572
16,4.6178055030032969
17,-10.08511260064995
18,9.477767708323102
2,1, 1, 1, 0, 2, 0.00,15.00,Tuesday
7,-12.075
8,0.0
9,0.0
10,0.0
11,0.0
12,0.0
13,0.0
14,8.644293968110479
15,-13.057246311774052
16,4.540941979713182
17,-9.920937281676516
18,9.332688681254382
2,1, 1, 1, 0, 2,15.00,30.00,Tuesday
7,-11.95
8,0.0
9,0.0
10,0.0
11,0.0
12,0.0
13,0.0
14,8.552200958021537
15,-12.880399731557049
16,4.496713875140813
17,-9.778784072923259
18,9.219788349744006
2,1, 1, 1, 0, 2,30.00,45.00,Tuesday
7,-11.825
8,0.0
9,0.0
10,0.0
11,0.0
12,0.0
13,0.0
14,8.477383502174844
15,-12.702419480027665
16,4.458596340500833
17,-9.63613571861515
18,9.132897032474013
2,1, 1, 1, 0, 2,45.00,60.00,Tuesday
7,-11.7
8,0.0
9,0.0
10,0.0
11,0.0
12,0.0
13,0.0
14,8.413554350179668
15,-12.524534110143577
16,4.433175964111342
17,-9.490869196206632
18,9.060710730165454
2,1, 1, 1, 0, 3, 0.00,15.00,Tuesday
7,-11.549999999999999
8,0.0
9,0.0
10,0.0
11,0.0
12,0.0
13,0.0
14,8.351369551196362
15,-12.3967111454779
16,4.417030323050312
17,-9.337400252229088
18,8.994451676743547
2,1, 1, 1, 0, 3,15.00,30.00,Tuesday
7,-11.399999999999999
8,0.0
9,0.0
10,0.0
11,0.0
12,0.0
13,0.0
14,8.29212700183554
15,-12.270179785392945
16,4.402558776285559
17,-9.183624806260696
18,8.930016131776405
2,1, 1, 1, 0, 3,30.00,45.00,Tuesday
7,-11.25
8,0.0
9,0.0
10,0.0
11,0.0
12,0.0
13,0.0
14,8.2336295306903
15,-12.145078698325046
16,4.389729158041632
17,-9.029525701766375
18,8.866364837308085
2,1, 1, 1, 0, 3,45.00,60.00,Tuesday
7,-11.1
8,0.0
9,0.0
10,0.0
11,0.0
12,0.0
13,0.0
14,8.175608632610203
15,-12.021460799526219
16,4.377515426170078
17,-8.875358878953819
18,8.803469056504263
2,1, 1, 1, 0, 4, 0.00,15.00,Tuesday
7,-11.1
8,0.0
9,0.0
10,0.0
11,0.0
12,0.0
13,0.0
14,8.113731067149184
15,-11.995583568020394
16,4.312767086276949
17,-8.923581169341106
18,8.74040332889581
2,1, 1, 1, 0, 4,15.00,30.00,Tuesday
7,-11.1
8,0.0
9,0.0
10,0.0
11,0.0
12,0.0
13,0.0
14,8.052262405869147
15,-11.97069626317886
16,4.25148364874201
17,-8.97018599371836
18,8.676802183567752
2,1, 1, 1, 0, 4,30.00,45.00,Tuesday
7,-11.1
8,0.0
9,0.0
10,0.0
11,0.0
12,0.0
13,0.0
14,7.990585392671427
15,-11.94722229467867
16,4.19058252741695
17,-9.015632833806138
18,8.61282501709486
2,1, 1, 1, 0, 4,45.00,60.00,Tuesday
7,-11.1
8,0.0
9,0.0
10,0.0
11,0.0
12,0.0
13,0.0
14,7.928832501986272
15,-11.925034550917342
16,4.129897264624162
17,-9.059851735475604
18,8.548739485732874
2,1, 1, 1, 0, 5, 0.00,15.00,Tuesday
7,-10.975
8,0.0
9,0.0
10,0.0
11,0.0
12,0.0
13,0.0
14,7.872667234468372
15,-11.803338854958405
16,4.1075458222739489
17,-8.975705471980746
18,8.485844266532079
2,1, 1, 1, 0, 5,15.00,30.00,Tuesday
7,-10.85
8,0.0
9,0.0
10,0.0
11,0.0
12,0.0
13,0.0
14,7.816756661452799
15,-11.681694059300546
16,4.082796820284329
17,-8.88333721106494
18,8.424633480371729
2,1, 1, 1, 0, 5,30.00,45.00,Tuesday
7,-10.725
8,0.0
9,0.0
10,0.0
11,0.0
12,0.0
13,0.0
14,7.761938786102179
15,-11.560025055415102
16,4.05837034465776
17,-8.790109516525718
18,8.364846191779567
2,1, 1, 1, 0, 5,45.00,60.00,Tuesday
7,-10.6
8,0.0
9,0.0
10,0.0
11,0.0
12,0.0
13,0.0
14,7.708019578328198
15,-11.438365161098734
16,4.034798430245758
17,-8.696637164621734
18,8.306079633698883
2,1, 1, 1, 0, 6, 0.00,15.00,Tuesday
7,-10.6
8,0.0
9,0.0
10,0.0
11,0.0
12,0.0
13,0.0
14,7.64740346526799
15,-11.439522650718711
16,3.9829415589757675
17,-8.699927681941404
18,8.246708186516509
2,1, 1, 1, 0, 6,15.00,30.00,Tuesday
7,-10.6
8,0.0
9,0.0
10,0.0
11,0.0
12,0.0
13,0.0
14,7.587437873138768
15,-11.440647756361067
16,3.93223899698728
17,-8.709601142010115
18,8.186045249683846
2,1, 1, 1, 0, 6,30.00,45.00,Tuesday
7,-10.6
8,0.0
9,0.0
10,0.0
11,0.0
12,0.0
13,0.0
14,7.52695453767937
15,-11.441814217503167
16,3.881732858203634
17,-8.719819095798414
18,8.124404795745962
2,1, 1, 1, 0, 6,45.00,60.00,Tuesday
7,-10.6
8,0.0
9,0.0
10,0.0
11,0.0
12,0.0
13,0.0
14,7.466200022500313
15,-11.44297734621465
16,3.8308906278147107
17,-8.730173160219067
18,8.062315890122497
2,1, 1, 1, 0, 7, 0.00,15.00,Tuesday
7,-10.6
8,0.0
9,0.0
10,0.0
11,0.0
12,0.0
13,0.0
14,7.407283040070607
15,-11.42152696430528
16,3.7715038675260077
17,-8.768403963354672
18,8.000400991082018
2,1, 1, 1, 0, 7,15.00,30.00,Tuesday
7,-10.6
8,0.0
9,0.0
10,0.0
11,0.0
12,0.0
13,0.0
14,7.348297811913992
15,-11.401189522288857
16,3.7142768201367177
17,-8.807032390944756
18,7.938981088518787
2,1, 1, 1, 0, 7,30.00,45.00,Tuesday
7,-10.6
8,0.0
9,0.0
10,0.0
11,0.0
12,0.0
13,0.0
14,7.289628854857266
15,-11.381891141282753
16,3.657585198773745
17,-8.84470088175351
18,7.878038678751897
2,1, 1, 1, 0, 7,45.00,60.00,Tuesday
7,-10.6
8,0.0
9,0.0
10,0.0
11,0.0
12,0.0
13,0.0
14,7.231278495456279
15,-11.363569754640333
16,3.6014564428044766
17,-8.881238917717667
18,7.817469385762299
2,1, 1, 1, 0, 8, 0.00,15.00,Tuesday
7,-10.45
8,0.0
9,0.0
10,0.0
11,0.0
12,0.0
13,0.0
14,7.172618001977176
15,-11.313168700891314
16,3.5738239854046016
17,-8.824316017624256
18,7.7570382485641959
2,1, 1, 1, 0, 8,15.00,30.00,Tuesday
7,-10.3
8,220.05475749298985
9,1.0
10,22.819555959623899
11,1.0
12,22.819555959623899
13,220.05475749298985
14,7.245191139367613
15,-9.63895801862302
16,3.824817325956701
17,-8.519636402800188
18,7.717673124197356
2,1, 1, 1, 0, 8,30.00,45.00,Tuesday
7,-10.15
8,1080.4710649854727
9,1.0
10,109.75755355442667
11,1.0
12,109.75755355442667
13,1080.4710649854727
14,7.676788905171261
15,-3.260292981353659
16,4.922971098034168
17,-7.526473222254424
18,7.758080599127931
2,1, 1, 1, 0, 8,45.00,60.00,Tuesday
7,-10.0
8,1964.7206396696764
9,1.0
10,195.8764694434918
11,1.0
12,195.8764694434918
13,1964.7206396696764
14,8.220308584536422
15,3.20876801245791
16,6.138664953493617
17,-6.544515380031953
18,7.886333102541931
2,1, 1, 1, 0, 9, 0.00,15.00,Tuesday
7,-9.725
8,2845.9245185079055
9,1.0
10,278.97248314719988
11,1.0
12,278.97248314719988
13,2845.9245185079055
14,8.712207730890457
15,8.391091400835205
16,7.367423407063313
17,-5.67587954981002
18,8.076454254712296
2,1, 1, 1, 0, 9,15.00,30.00,Tuesday
7,-9.45
8,3774.814386995229
9,1.0
10,364.91995730569456
11,1.0
12,364.91995730569456
13,3774.814386995229
14,9.204458687041269
15,13.463812540268563
16,8.721856222087468
17,-4.787913348744951
18,8.316417743380623
2,1, 1, 1, 0, 9,30.00,45.00,Tuesday
7,-9.175
8,4389.36439453457
9,1.0
10,420.35879993239237
11,1.0
12,420.35879993239237
13,4389.36439453457
14,9.56377589466159
15,16.219991658193675
16,9.619844605833407
17,-4.23374011996367
18,8.583653714118706
2,1, 1, 1, 0, 9,45.00,60.00,Tuesday
7,-8.9
8,5027.317519057415
9,1.0
10,478.00138373643099
11,1.0
12,478.00138373643099
13,5027.317519057415
14,9.982383023853805
15,19.213812690183699
16,10.502036394161508
17,-3.6675336212987874
18,8.86698183886573
2,1, 1, 1, 0,10, 0.00,15.00,Tuesday
7,-8.350000000000002
8,5678.748793684562
9,1.0
10,536.9185644770597
11,1.0
12,536.9185644770597
13,5678.748793684562
14,10.352701767840199
15,20.326671648461486
16,11.42062703724821
17,-3.0433185946370715
18,8.998881442618036
2,1, 1, 1, 0,10,15.00,30.00,Tuesday
7,-7.800000000000001
8,6352.6850623136219
9,1.0
10,598.0969199229219
11,1.0
12,598.0969199229219
13,6352.6850623136219
14,10.715894058876595
15,21.574870312039616
16,12.336837422745476
17,-2.418036843492132
18,9.268472669938424
2,1, 1, 1, 0,10,30.00,45.00,Tuesday
7,-7.25
8,6794.795076485123
9,1.0
10,637.6133352894237
11,1.0
12,637.6133352894237
13,6794.795076485123
14,10.96519361327524
15,21.630191566505969
16,12.988217743816847
17,-1.9669176808420162
18,9.474160267173428
2,1, 1, 1, 0,10,45.00,60.00,Tuesday
7,-6.7
8,7230.393044973507
9,1.0
10,676.6412284283772
11,1.0
12,676.6412284283772
13,7230.393044973507
14,11.315179472180452
15,21.789163340885517
16,13.635381706608428
17,-1.5111758720214539
18,9.933424946027472
2,1, 1, 1, 0,11, 0.00,15.00,Tuesday
7,-6.275
8,7658.0663758008899
9,1.0
10,715.0112779846514
11,1.0
12,715.0112779846514
13,7658.0663758008899
14,11.795171858279668
15,23.889088197892467
16,14.373381892889597
17,-0.8449908012513561
18,10.351758833267397
2,1, 1, 1, 0,11,15.00,30.00,Tuesday
7,-5.85
8,8075.672807171817
9,1.0
10,752.5077794605232
11,1.0
12,752.5077794605232
13,8075.672807171817
14,12.240201213436153
15,25.824553211953199
16,15.11524500581595
17,-0.1958534002301917
18,10.76525701243878
2,1, 1, 1, 0,11,30.00,45.00,Tuesday
7,-5.425
8,7951.560838592399
9,1.0
10,742.5988714321785
11,1.0
12,742.5988714321785
13,7951.560838592399
14,12.529038306323958
15,25.67701046237171
16,15.372623339145662
17,0.12389301058306046
18,11.158098154522165
2,1, 1, 1, 0,11,45.00,60.00,Tuesday
7,-5.0
8,7774.219309977281
9,1.0
10,727.8169025450712
11,1.0
12,727.8169025450712
13,7774.219309977281
14,12.803391282938158
15,25.4488640440334
16,15.541308213353205
17,0.41691805852525479
18,11.508777364158613
2,1, 1, 1, 0,12, 0.00,15.00,Tuesday
7,-4.575
8,7469.245613520744
9,1.0
10,700.3759009170325
11,1.0
12,700.3759009170325
13,7469.245613520744
14,13.00164129402328
15,24.707071827949844
16,15.571997991273179
17,0.6657126292910789
18,11.813164649748418
2,1, 1, 1, 0,12,15.00,30.00,Tuesday
7,-4.15
8,7243.068164766669
9,1.0
10,681.6705029034473
11,1.0
12,681.6705029034473
13,7243.068164766669
14,13.22193508810725
15,24.377515028268623
16,15.664523974446923
17,0.9742187870608632
18,12.08285428494166
2,1, 1, 1, 0,12,30.00,45.00,Tuesday
7,-3.7249999999999998
8,6358.81060915208
9,1.0
10,602.01865277251
11,1.0
12,602.01865277251
13,6358.81060915208
14,13.134836677616877
15,21.34881848892803
16,15.116712104931026
17,0.876337963369906
18,12.292107855837454
2,1, 1, 1, 0,12,45.00,60.00,Tuesday
7,-3.3
8,5193.320500590251
9,1.0
10,493.55004396206007
11,1.0
12,493.55004396206007
13,5193.320500590251
14,12.937637006423895
15,17.171881149071046
16,14.135010439604287
17,0.5641457153226384
18,12.407128781268649
2,1, 1, 1, 0,13, 0.00,15.00,Tuesday
7,-3.0249999999999996
8,4288.105065444306
9,1.0
10,412.335026418112
11,1.0
12,412.335026418112
13,4288.105065444306
14,12.802208691179978
15,14.328988158498197
16,13.342986992351939
17,0.3692027884851541
18,12.446060400168962
2,1, 1, 1, 0,13,15.00,30.00,Tuesday
7,-2.75
8,3140.642132423126
9,1.0
10,305.94037763660148
11,1.0
12,305.94037763660148
13,3140.642132423126
14,12.462889179784885
15,10.156736428830304
16,12.178089472008765
17,-0.029840686822467434
18,12.420632157046967
2,1, 1, 1, 0,13,30.00,45.00,Tuesday
7,-2.475
8,2867.295092371146
9,1.0
10,281.0763483922329
11,1.0
12,281.0763483922329
13,2867.295092371146
14,12.435140350528263
15,9.645657181298488
16,11.896314297665186
17,0.12592617000973406
18,12.374354184775634
2,1, 1, 1, 0,13,45.00,60.00,Tuesday
7,-2.2
8,2599.642248959699
9,1.0
10,256.7721209415886
11,1.0
12,256.7721209415886
13,2599.642248959699
14,12.395318771117927
15,9.039725952246583
16,11.714960904457314
17,0.30800402985050825
18,12.334545416418642
2,1, 1, 1, 0,14, 0.00,15.00,Tuesday
7,-1.9250000000000003
8,2123.6433216905736
9,1.0
10,210.73276284570657
11,1.0
12,210.73276284570657
13,2123.6433216905736
14,12.229390536213055
15,7.493446114920766
16,11.264175849324488
17,0.2911291313852189
18,12.296235963246636
2,1, 1, 1, 0,14,15.00,30.00,Tuesday
7,-1.6500000000000002
8,1886.4807711087688
9,1.0
10,189.38488290342594
11,1.0
12,189.38488290342594
13,1886.4807711087688
14,12.188635365994628
15,7.09238787036745
16,11.053999798835548
17,0.4622511714532038
18,12.259942847894813
2,1, 1, 1, 0,14,30.00,45.00,Tuesday
7,-1.375
8,1799.1687755736576
9,1.0
10,179.3940297802914
11,1.0
12,179.3940297802914
13,1799.1687755736576
14,12.171538384003656
15,7.217155605951833
16,11.01261414092238
17,0.7134283596027444
18,12.227736112094519
2,1, 1, 1, 0,14,45.00,60.00,Tuesday
7,-1.1
8,1710.8592883681136
9,1.0
10,169.43349014176136
11,1.0
12,169.43349014176136
13,1710.8592883681136
14,12.150448786024875
15,7.318382292219094
16,10.963711280434837
17,0.9631098089938064
18,12.199183383138657
2,1, 1, 1, 0,15, 0.00,15.00,Tuesday
7,-1.1
8,1800.78673447362
9,1.0
10,178.15692317953907
11,1.0
12,178.15692317953907
13,1800.78673447362
14,12.216003511360232
15,8.138024613017464
16,11.068192033147284
17,1.0907590324660533
18,12.179034073377869
2,1, 1, 1, 0,15,15.00,30.00,Tuesday
7,-1.1
8,1691.789680705101
9,1.0
10,166.40516310952945
11,1.0
12,166.40516310952945
13,1691.789680705101
14,12.157227495770606
15,7.777160053397753
16,10.955867196997588
17,1.0580423967088564
18,12.161232490287889
2,1, 1, 1, 0,15,30.00,45.00,Tuesday
7,-1.1
8,1426.4866612247716
9,1.0
10,140.8967369711617
11,1.0
12,140.8967369711617
13,1426.4866612247716
14,12.012882505658798
15,6.566198599083304
16,10.63528284098669
17,0.8880602880767015
18,12.134099728409046
2,1, 1, 1, 0,15,45.00,60.00,Tuesday
7,-1.1
8,1173.8822660371796
9,1.0
10,116.57355796743004
11,1.0
12,116.57355796743004
13,1173.8822660371796
14,11.898385560263675
15,5.370361252547311
16,10.30857877900155
17,0.7100647051780697
18,12.08658055903506
2,1, 1, 1, 0,16, 0.00,15.00,Tuesday
7,-1.1
8,931.6599419423
9,1.0
10,93.14939272689483
11,1.0
12,93.14939272689483
13,931.6599419423
14,11.776324635618473
15,4.322797873430103
16,10.019317291912785
17,0.6208608752133387
18,12.01929500823443
2,1, 1, 1, 0,16,15.00,30.00,Tuesday
7,-1.1
8,578.3761801087954
9,1.0
10,57.94047897402063
11,1.0
12,57.94047897402063
13,578.3761801087954
14,11.559088989054285
15,2.2052234265076939
16,9.571498861152464
17,0.40614630692505218
18,11.925865976982625
2,1, 1, 1, 0,16,30.00,45.00,Tuesday
7,-1.1
8,448.4304695151742
9,1.0
10,45.38251793443488
11,1.0
12,45.38251793443488
13,448.4304695151742
14,11.469954598801698
15,1.6021987436312156
16,9.363873278018219
17,0.4035861369983422
18,11.821355894132083
2,1, 1, 1, 0,16,45.00,60.00,Tuesday
7,-1.1
8,313.03417638125816
9,1.0
10,32.02625108222755
11,1.0
12,32.02625108222755
13,313.03417638125816
14,11.340038412098867
15,0.747752397106806
16,9.177307387727126
17,0.4024640344924819
18,11.71884965585257
2,1, 1, 1, 0,17, 0.00,15.00,Tuesday
7,-1.1
8,171.69880730932804
9,1.0
10,17.762198626050539
11,1.0
12,17.762198626050539
13,171.69880730932804
14,11.186256195742395
15,-0.4915585642615737
16,8.93931544326557
17,0.2938358606048723
18,11.61636861109447
2,1, 1, 1, 0,17,15.00,30.00,Tuesday
7,-1.1
8,0.0
9,0.0
10,0.0
11,0.0
12,0.0
13,0.0
14,10.981404606585379
15,-2.323124684062808
16,8.62334841696213
17,0.052406140508367119
18,11.500063603874838
2,1, 1, 1, 0,17,30.00,45.00,Tuesday
7,-1.1
8,0.0
9,0.0
10,0.0
11,0.0
12,0.0
13,0.0
14,10.914640447071806
15,-2.4531955912903387
16,8.534373500012805
17,0.10059834129100409
18,11.386421946637098
2,1, 1, 1, 0,17,45.00,60.00,Tuesday
7,-1.1
8,0.0
9,0.0
10,0.0
11,0.0
12,0.0
13,0.0
14,10.831171299307137
15,-2.634233291324993
16,8.488399350977716
17,0.16279554454422397
18,11.290388002479013
2,1, 1, 1, 0,18, 0.00,15.00,Tuesday
7,-1.25
8,0.0
9,0.0
10,0.0
11,0.0
12,0.0
13,0.0
14,10.759320384302353
15,-2.783375093561239
16,8.389685285789483
17,0.02139021324182977
18,11.212040120168565
2,1, 1, 1, 0,18,15.00,30.00,Tuesday
7,-1.4
8,0.0
9,0.0
10,0.0
11,0.0
12,0.0
13,0.0
14,10.693292312090316
15,-2.9358856753347015
16,8.304610824954864
17,-0.11272027934614926
18,11.14531063149202
2,1, 1, 1, 0,18,30.00,45.00,Tuesday
7,-1.5499999999999999
8,0.0
9,0.0
10,0.0
11,0.0
12,0.0
13,0.0
14,10.631509203945799
15,-3.0880896161413187
16,8.224326373504141
17,-0.24596057143565987
18,11.084459264918938
2,1, 1, 1, 0,18,45.00,60.00,Tuesday
7,-1.7
8,0.0
9,0.0
10,0.0
11,0.0
12,0.0
13,0.0
14,10.571592252884843
15,-3.240460344055753
16,8.146909808217174
17,-0.37856057831527326
18,11.026135478137086
2,1, 1, 1, 0,19, 0.00,15.00,Tuesday
7,-1.825
8,0.0
9,0.0
10,0.0
11,0.0
12,0.0
13,0.0
14,10.533547758407936
15,-3.108536727888638
16,8.046131520077552
17,-0.5923614527029031
18,10.972031357319042
2,1, 1, 1, 0,19,15.00,30.00,Tuesday
7,-1.9500000000000002
8,0.0
9,0.0
10,0.0
11,0.0
12,0.0
13,0.0
14,10.495072330261678
15,-3.0559895294156447
16,7.961557295163061
17,-0.7901651592227381
18,10.92398964167516
2,1, 1, 1, 0,19,30.00,45.00,Tuesday
7,-2.075
8,0.0
9,0.0
10,0.0
11,0.0
12,0.0
13,0.0
14,10.45264817669315
15,-3.133709007099241
16,7.900171404518062
17,-0.9218934417092441
18,10.880851135157114
2,1, 1, 1, 0,19,45.00,60.00,Tuesday
7,-2.2
8,0.0
9,0.0
10,0.0
11,0.0
12,0.0
13,0.0
14,10.412685203365106
15,-3.123942611666166
16,7.820003319077841
17,-1.1083775949189204
18,10.839572310598486
2,1, 1, 1, 0,20, 0.00,15.00,Tuesday
7,-1.9250000000000003
8,0.0
9,0.0
10,0.0
11,0.0
12,0.0
13,0.0
14,10.389464800400449
15,-2.8258498277665717
16,7.847056720021271
17,-0.9149817235339697
18,10.801103465673139
2,1, 1, 1, 0,20,15.00,30.00,Tuesday
7,-1.6500000000000002
8,0.0
9,0.0
10,0.0
11,0.0
12,0.0
13,0.0
14,10.365618867694942
15,-2.5304963796466168
16,7.871366628910778
17,-0.7098810200203047
18,10.766064898100665
2,1, 1, 1, 0,20,30.00,45.00,Tuesday
7,-1.375
8,0.0
9,0.0
10,0.0
11,0.0
12,0.0
13,0.0
14,10.343781503936779
15,-2.2362385382410645
16,7.897066278818329
17,-0.5023047442615507
18,10.733941084098572
2,1, 1, 1, 0,20,45.00,60.00,Tuesday
7,-1.1
8,0.0
9,0.0
10,0.0
11,0.0
12,0.0
13,0.0
14,10.323571902713877
15,-1.9431198775017169
16,7.924945782052987
17,-0.29229535130679099
18,10.70393822380964
2,1, 1, 1, 0,21, 0.00,15.00,Tuesday
7,-1.25
8,0.0
9,0.0
10,0.0
11,0.0
12,0.0
13,0.0
14,10.265464365082816
15,-2.2115883472888444
16,7.889228513607634
17,-0.3270778781543413
18,10.6693792041078
2,1, 1, 1, 0,21,15.00,30.00,Tuesday
7,-1.4
8,0.0
9,0.0
10,0.0
11,0.0
12,0.0
13,0.0
14,10.208138479799107
15,-2.421369222427084
16,7.832200787008219
17,-0.40276483535933496
18,10.625759123105647
2,1, 1, 1, 0,21,30.00,45.00,Tuesday
7,-1.5499999999999999
8,0.0
9,0.0
10,0.0
11,0.0
12,0.0
13,0.0
14,10.138396589345378
15,-2.7487387615502074
16,7.789943847986365
17,-0.4202278239699808
18,10.572622516354852
2,1, 1, 1, 0,21,45.00,60.00,Tuesday
7,-1.7
8,0.0
9,0.0
10,0.0
11,0.0
12,0.0
13,0.0
14,10.063434082366112
15,-3.180975741251827
16,7.748156372749236
17,-0.4040877506723177
18,10.512414932677578
2,1, 1, 1, 0,22, 0.00,15.00,Tuesday
7,-1.5499999999999999
8,0.0
9,0.0
10,0.0
11,0.0
12,0.0
13,0.0
14,10.050736585976198
15,-2.7164889214564988
16,7.68912633685909
17,-0.43618585278642288
18,10.457984560674339
2,1, 1, 1, 0,22,15.00,30.00,Tuesday
7,-1.4
8,0.0
9,0.0
10,0.0
11,0.0
12,0.0
13,0.0
14,10.028796463442694
15,-2.401914272802522
16,7.668511499765486
17,-0.4309827975446865
18,10.416157728017021
2,1, 1, 1, 0,22,30.00,45.00,Tuesday
7,-1.25
8,0.0
9,0.0
10,0.0
11,0.0
12,0.0
13,0.0
14,10.006713164273286
15,-2.188803002150781
16,7.663238629898501
17,-0.3580689736771774
18,10.38443751450998
2,1, 1, 1, 0,22,45.00,60.00,Tuesday
7,-1.1
8,0.0
9,0.0
10,0.0
11,0.0
12,0.0
13,0.0
14,9.988440898304848
15,-1.9187471009304616
16,7.653674222279847
17,-0.32833916764582229
18,10.357545866207424
2,1, 1, 1, 0,23, 0.00,15.00,Tuesday
7,-1.25
8,0.0
9,0.0
10,0.0
11,0.0
12,0.0
13,0.0
14,9.929305791359088
15,-2.221925111111539
16,7.553532917812163
17,-0.599057765875159
18,10.325029188606063
2,1, 1, 1, 0,23,15.00,30.00,Tuesday
7,-1.4
8,0.0
9,0.0
10,0.0
11,0.0
12,0.0
13,0.0
14,9.872371500682329
15,-2.5266713165861716
16,7.4445887496145819
17,-0.889457787062554
18,10.28221566373489
2,1, 1, 1, 0,23,30.00,45.00,Tuesday
7,-1.5499999999999999
8,0.0
9,0.0
10,0.0
11,0.0
12,0.0
13,0.0
14,9.810478373579855
15,-2.8320701563999846
16,7.333728200971791
17,-1.1813491820910259
18,10.230692504571176
2,1, 1, 1, 0,23,45.00,60.00,Tuesday
7,-1.7
8,0.0
9,0.0
10,0.0
11,0.0
12,0.0
13,0.0
14,9.744705676240472
15,-3.1378132920292556
16,7.21869804495941
17,-1.4750085549731012
18,10.173619172148492
2,1, 1, 1, 0,24, 0.00,15.00,Tuesday
7,-1.7
8,0.0
9,0.0
10,0.0
11,0.0
12,0.0
13,0.0
14,9.694264649636068
15,-3.192186818063467
16,7.15889623476437
17,-1.5421968863987559
18,10.116602857541741
2,1, 1, 1, 0,24,15.00,30.00,Tuesday
7,-1.7
8,0.0
9,0.0
10,0.0
11,0.0
12,0.0
13,0.0
14,9.641907485288464
15,-3.247063547947801
16,7.103355280211929
17,-1.6064224598939632
18,10.062434445328539
2,1, 1, 1, 0,24,30.00,45.00,Tuesday
7,-1.7
8,0.0
9,0.0
10,0.0
11,0.0
12,0.0
13,0.0
14,9.590811336148008
15,-3.3018335998413699
16,7.047701802922006
17,-1.6708130299924733
18,10.010874622451285
2,1, 1, 1, 0,24,45.00,60.00,Tuesday
7,-1.7
8,0.0
9,0.0
10,0.0
11,0.0
12,0.0
13,0.0
14,9.54060278957571
15,-3.356608927697607
16,6.992966639986378
17,-1.7352630485387409
18,9.960778555044577
End of Data
 Number of Records Written=        1152
