Program Version,EnergyPlus, Version 9.5.0-de239b2e5f, YMD=2022.11.01 22:08
1,5,Environment Title[],Latitude[deg],Longitude[deg],Time Zone[],Elevation[m]
2,8,Day of Simulation[],Month[],Day of Month[],DST Indicator[1=yes 0=no],Hour[],StartMinute[],EndMinute[],DayType
3,5,Cumulative Day of Simulation[],Month[],Day of Month[],DST Indicator[1=yes 0=no],DayType  ! When Daily Report Variables Requested
4,2,Cumulative Days of Simulation[],Month[]  ! When Monthly Report Variables Requested
5,1,Cumulative Days of Simulation[] ! When Run Period Report Variables Requested
6,1,Calendar Year of Simulation[] ! When Annual Report Variables Requested
7,1,Environment,Site Outdoor Air Drybulb Temperature [C] !TimeStep
8,1,ZONE ONE,Zone Windows Total Transmitted Solar Radiation Rate [W] !TimeStep
9,1,ZN001:WALL001,Surface Outside Face Sunlit Fraction [] !TimeStep
10,1,ZN001:WALL001,Surface Outside Face Incident Solar Radiation Rate per Area [W/m2] !TimeStep
11,1,ZN001:WALL001:WIN001,Surface Outside Face Sunlit Fraction [] !TimeStep
12,1,ZN001:WALL001:WIN001,Surface Outside Face Incident Solar Radiation Rate per Area [W/m2] !TimeStep
13,1,ZN001:WALL001:WIN001,Surface Window Transmitted Solar Radiation Rate [W] !TimeStep
14,1,ZN001:WALL001,Surface Inside Face Temperature [C] !TimeStep
15,1,ZN001:WALL001,Surface Outside Face Temperature [C] !TimeStep
16,1,ZN001:WALL001:WIN001,Surface Inside Face Temperature [C] !TimeStep
17,1,ZN001:WALL001:WIN001,Surface Outside Face Temperature [C] !TimeStep
18,1,ZONE ONE,Zone Mean Air Temperature [C] !TimeStep
End of Data Dictionary
1,RUN PERIOD 1,  41.98, -87.92,  -6.00, 201.00
2,1, 1, 1, 0, 1, 0.00,15.00,Tuesday
7,-4.324999999999999
8,0.0
9,0.0
10,0.0
11,0.0
12,0.0
13,0.0
14,4.206406283673849
15,-5.92733194411715
16,2.1790896488919317
17,-4.671027349451549
18,4.623423307744772
2,1, 1, 1, 0, 1,15.00,30.00,Tuesday
7,-6.949999999999999
8,0.0
9,0.0
10,0.0
11,0.0
12,0.0
13,0.0
14,4.027228271360639
15,-8.394994669565492
16,1.569415618019832
17,-6.75871807252048
18,4.530764302231659
2,1, 1, 1, 0, 1,30.00,45.00,Tuesday
7,-9.575
8,0.0
9,0.0
10,0.0
11,0.0
12,0.0
13,0.0
14,3.828091920884231
15,-10.870760903551786
16,0.9551808780209967
17,-8.852920220237707
18,4.4058129189318679
2,1, 1, 1, 0, 1,45.00,60.00,Tuesday
7,-12.2
8,0.0
9,0.0
10,0.0
11,0.0
12,0.0
13,0.0
14,3.613124770892491
15,-13.353119833819182
16,0.3266044296922246
17,-10.95499545009659
18,4.258167388452556
2,1, 1, 1, 0, 2, 0.00,15.00,Tuesday
7,-12.075
8,0.0
9,0.0
10,0.0
11,0.0
12,0.0
13,0.0
14,3.549791340974081
15,-13.154361064600702
16,0.2606831600115811
17,-10.801145600074392
18,4.124914070440651
2,1, 1, 1, 0, 2,15.00,30.00,Tuesday
7,-11.95
8,0.0
9,0.0
10,0.0
11,0.0
12,0.0
13,0.0
14,3.4724529967167916
15,-12.977195782725469
16,0.23150438204834246
17,-10.655128675953847
18,4.023428173682277
2,1, 1, 1, 0, 2,30.00,45.00,Tuesday
7,-11.825
8,0.0
9,0.0
10,0.0
11,0.0
12,0.0
13,0.0
14,3.4122098802380407
15,-12.798854918068555
16,0.20770430130971818
17,-10.508726543721935
18,3.948729433095618
2,1, 1, 1, 0, 2,45.00,60.00,Tuesday
7,-11.7
8,0.0
9,0.0
10,0.0
11,0.0
12,0.0
13,0.0
14,3.3632441354120456
15,-12.620585628777404
16,0.19657166122169657
17,-10.359669969163292
18,3.8899700004608799
2,1, 1, 1, 0, 3, 0.00,15.00,Tuesday
7,-11.549999999999999
8,0.0
9,0.0
10,0.0
11,0.0
12,0.0
13,0.0
14,3.315995479090027
15,-12.495061440757116
16,0.19484690256228988
17,-10.225795201435972
18,3.8382137476710027
2,1, 1, 1, 0, 3,15.00,30.00,Tuesday
7,-11.399999999999999
8,0.0
9,0.0
10,0.0
11,0.0
12,0.0
13,0.0
14,3.271982865692846
15,-12.370928206308838
16,0.18829851811835852
17,-10.07338840280903
18,3.788848481920665
2,1, 1, 1, 0, 3,30.00,45.00,Tuesday
7,-11.25
8,0.0
9,0.0
10,0.0
11,0.0
12,0.0
13,0.0
14,3.2289826700687764
15,-12.248351423704819
16,0.19025985259020218
17,-9.938637736154647
18,3.7405655516800948
2,1, 1, 1, 0, 3,45.00,60.00,Tuesday
7,-11.1
8,0.0
9,0.0
10,0.0
11,0.0
12,0.0
13,0.0
14,3.1864661683010317
15,-12.127383422526063
16,0.19000797984057272
17,-9.79581005241505
18,3.693155033396701
2,1, 1, 1, 0, 4, 0.00,15.00,Tuesday
7,-11.1
8,0.0
9,0.0
10,0.0
11,0.0
12,0.0
13,0.0
14,3.140275779426388
15,-12.098164185277524
16,0.13916901543751693
17,-9.818501821368614
18,3.6457013683462899
2,1, 1, 1, 0, 4,15.00,30.00,Tuesday
7,-11.1
8,0.0
9,0.0
10,0.0
11,0.0
12,0.0
13,0.0
14,3.094494027061547
15,-12.070075316045007
16,0.09408217242383899
17,-9.8482226881992
18,3.597857373918315
2,1, 1, 1, 0, 4,30.00,45.00,Tuesday
7,-11.1
8,0.0
9,0.0
10,0.0
11,0.0
12,0.0
13,0.0
14,3.0485407550199157
15,-12.043557183792287
16,0.04974668372324231
17,-9.877753914423409
18,3.549735999813085
2,1, 1, 1, 0, 4,45.00,60.00,Tuesday
7,-11.1
8,0.0
9,0.0
10,0.0
11,0.0
12,0.0
13,0.0
14,3.0025165368459478
15,-12.018477611750459
16,0.005619206449523517
17,-9.90644746544558
18,3.5015400810096315
2,1, 1, 1, 0, 5, 0.00,15.00,Tuesday
7,-10.975
8,0.0
9,0.0
10,0.0
11,0.0
12,0.0
13,0.0
14,2.9621464248706155
15,-11.896407755112769
16,-0.0026618115450105508
17,-9.819213248521692
18,3.454433148897306
2,1, 1, 1, 0, 5,15.00,30.00,Tuesday
7,-10.85
8,0.0
9,0.0
10,0.0
11,0.0
12,0.0
13,0.0
14,2.921979604140681
15,-11.774418478398096
16,-0.012929639871458676
17,-9.724048616235848
18,3.4088929551970419
2,1, 1, 1, 0, 5,30.00,45.00,Tuesday
7,-10.725
8,0.0
9,0.0
10,0.0
11,0.0
12,0.0
13,0.0
14,2.882809354715867
15,-11.6524075065306
16,-0.022928258390493285
17,-9.628043052803207
18,3.364705801966796
2,1, 1, 1, 0, 5,45.00,60.00,Tuesday
7,-10.6
8,0.0
9,0.0
10,0.0
11,0.0
12,0.0
13,0.0
14,2.8444745904820989
15,-11.530406220770989
16,-0.032149404162623799
17,-9.531805904215844
18,3.3215054467570535
2,1, 1, 1, 0, 6, 0.00,15.00,Tuesday
7,-10.6
8,0.0
9,0.0
10,0.0
11,0.0
12,0.0
13,0.0
14,2.7990547478555904
15,-11.531311316712367
16,-0.06770445676511372
17,-9.535271362391314
18,3.2778034874024639
2,1, 1, 1, 0, 6,15.00,30.00,Tuesday
7,-10.6
8,0.0
9,0.0
10,0.0
11,0.0
12,0.0
13,0.0
14,2.7542225508796509
15,-11.532146963291853
16,-0.10793302160317353
17,-9.539519839515322
18,3.23271171076545
2,1, 1, 1, 0, 6,30.00,45.00,Tuesday
7,-10.6
8,0.0
9,0.0
10,0.0
11,0.0
12,0.0
13,0.0
14,2.7088594483126626
15,-11.533029181023519
16,-0.14544229715295388
17,-9.546858014501823
18,3.186501452745462
2,1, 1, 1, 0, 6,45.00,60.00,Tuesday
7,-10.6
8,0.0
9,0.0
10,0.0
11,0.0
12,0.0
13,0.0
14,2.663142508608921
15,-11.533909630564473
16,-0.1831720885197683
17,-9.554657923466209
18,3.1397251281898335
2,1, 1, 1, 0, 7, 0.00,15.00,Tuesday
7,-10.6
8,0.0
9,0.0
10,0.0
11,0.0
12,0.0
13,0.0
14,2.6194806801659076
15,-11.509788778599275
16,-0.22615705910021689
17,-9.578708927404478
18,3.0930945220310348
2,1, 1, 1, 0, 7,15.00,30.00,Tuesday
7,-10.6
8,0.0
9,0.0
10,0.0
11,0.0
12,0.0
13,0.0
14,2.5756827915479536
15,-11.486918144692226
16,-0.2674244299278712
17,-9.602838398100176
18,3.046970782498156
2,1, 1, 1, 0, 7,30.00,45.00,Tuesday
7,-10.6
8,0.0
9,0.0
10,0.0
11,0.0
12,0.0
13,0.0
14,2.5321707311611609
15,-11.465208859817347
16,-0.3083013669357797
17,-9.626305880869154
18,3.001333420559576
2,1, 1, 1, 0, 7,45.00,60.00,Tuesday
7,-10.6
8,0.0
9,0.0
10,0.0
11,0.0
12,0.0
13,0.0
14,2.48895291992866
15,-11.444592368809499
16,-0.3487203653114648
17,-9.648992303667228
18,2.9560615449904348
2,1, 1, 1, 0, 8, 0.00,15.00,Tuesday
7,-10.45
8,0.0
9,0.0
10,0.0
11,0.0
12,0.0
13,0.0
14,2.4450235124855816
15,-11.395974530061663
16,-0.3667463116350973
17,-9.600835449548072
18,2.9107845088251405
2,1, 1, 1, 0, 8,15.00,30.00,Tuesday
7,-10.3
8,126.06928150568752
9,1.0
10,22.819555959623899
11,1.0
12,22.819555959623899
13,126.06928150568752
14,2.5158845421792588
15,-9.72267511360859
16,-0.02685522393824158
17,-9.24790604144016
18,2.88238494768149
2,1, 1, 1, 0, 8,30.00,45.00,Tuesday
7,-10.15
8,619.2764071800544
9,1.0
10,109.75755355442667
11,1.0
12,109.75755355442667
13,619.2764071800544
14,2.899321412284235
15,-3.356631631309349
16,1.3951453466434032
17,-8.022987964731329
18,2.9175923858292736
2,1, 1, 1, 0, 8,45.00,60.00,Tuesday
7,-10.0
8,1127.0115125853552
9,1.0
10,195.8764694434918
11,1.0
12,195.8764694434918
13,1127.0115125853552
14,3.395552565669421
15,3.138272017599035
16,2.986313730683719
17,-6.787803118231409
18,3.0221030485332736
2,1, 1, 1, 0, 9, 0.00,15.00,Tuesday
7,-9.725
8,1633.9473187826489
9,1.0
10,278.97248314719988
11,1.0
12,278.97248314719988
13,1633.9473187826489
14,3.7749083959429314
15,8.306478094703343
16,4.50656001767976
17,-5.700105576089072
18,3.177669151427872
2,1, 1, 1, 0, 9,15.00,30.00,Tuesday
7,-9.45
8,2169.349728651995
9,1.0
10,364.91995730569456
11,1.0
12,364.91995730569456
13,2169.349728651995
14,4.19011546019208
15,13.387213205226507
16,5.9883365977084399
17,-4.621701527938967
18,3.3762088415274329
2,1, 1, 1, 0, 9,30.00,45.00,Tuesday
7,-9.175
8,2525.0021574180275
9,1.0
10,420.35879993239237
11,1.0
12,420.35879993239237
13,2525.0021574180275
14,4.478790260454041
15,16.14526638725524
16,6.976932087625698
17,-3.957193319032399
18,3.598064899123123
2,1, 1, 1, 0, 9,45.00,60.00,Tuesday
7,-8.9
8,2894.733153372019
9,1.0
10,478.00138373643099
11,1.0
12,478.00138373643099
13,2894.733153372019
14,4.81834999890074
15,19.14034349236348
16,7.963302555239409
17,-3.26926984972107
18,3.8330290121469408
2,1, 1, 1, 0,10, 0.00,15.00,Tuesday
7,-8.350000000000002
8,3272.8152773642016
9,1.0
10,536.9185644770597
11,1.0
12,536.9185644770597
13,3272.8152773642016
14,5.1021506192614869
15,20.258343949499247
16,8.976138229764388
17,-2.5520291457498844
18,4.081506312760137
2,1, 1, 1, 0,10,15.00,30.00,Tuesday
7,-7.800000000000001
8,3664.393247000183
9,1.0
10,598.0969199229219
11,1.0
12,598.0969199229219
13,3664.393247000183
14,5.412738442682067
15,21.51165567008686
16,10.005313255990302
17,-1.838352106567413
18,4.352681812270131
2,1, 1, 1, 0,10,30.00,45.00,Tuesday
7,-7.25
8,3922.5875021824988
9,1.0
10,637.6133352894237
11,1.0
12,637.6133352894237
13,3922.5875021824988
14,5.651920839518326
15,21.571721220699119
16,10.739429432771204
17,-1.3446147237384594
18,4.632684107474894
2,1, 1, 1, 0,10,45.00,60.00,Tuesday
7,-6.7
8,4177.176988782302
9,1.0
10,676.6412284283772
11,1.0
12,676.6412284283772
13,4177.176988782302
14,5.9131635518644158
15,21.732180796824048
16,11.447810415759477
17,-0.8545144859866696
18,4.90988869490413
2,1, 1, 1, 0,11, 0.00,15.00,Tuesday
7,-6.275
8,4427.248625872422
9,1.0
10,715.0112779846514
11,1.0
12,715.0112779846514
13,4427.248625872422
14,6.250917306009847
15,23.829936959836784
16,12.197179439681122
17,-0.13002063256783459
18,5.1863783579050379
2,1, 1, 1, 0,11,15.00,30.00,Tuesday
7,-5.85
8,4671.461249301913
9,1.0
10,752.5077794605232
11,1.0
12,752.5077794605232
13,4671.461249301913
14,6.5771291848287529
15,25.765096447762205
16,12.937942175411877
17,0.5738651929359548
18,5.466413865068417
2,1, 1, 1, 0,11,30.00,45.00,Tuesday
7,-5.425
8,4601.007190918364
9,1.0
10,742.5988714321785
11,1.0
12,742.5988714321785
13,4601.007190918364
14,6.7693731536305059
15,25.617024833676827
16,13.074185754104065
17,0.8594408883674305
18,5.732696050250994
2,1, 1, 1, 0,11,45.00,60.00,Tuesday
7,-5.0
8,4499.201685326692
9,1.0
10,727.8169025450712
11,1.0
12,727.8169025450712
13,4499.201685326692
14,6.95702732588711
15,25.387964318054125
16,13.122454945196694
17,1.1122413535396163
18,5.972509273790467
2,1, 1, 1, 0,12, 0.00,15.00,Tuesday
7,-4.575
8,4323.308662456177
9,1.0
10,700.3759009170325
11,1.0
12,700.3759009170325
13,4323.308662456177
14,7.0876662613639429
15,24.645470093958278
16,13.011451901889473
17,1.301174164243264
18,6.178860865961089
2,1, 1, 1, 0,12,15.00,30.00,Tuesday
7,-4.15
8,4192.088537559883
9,1.0
10,681.6705029034473
11,1.0
12,681.6705029034473
13,4192.088537559883
14,7.240106598422361
15,24.31513831629804
16,12.990816650605382
17,1.5629753221132888
18,6.35943466818675
2,1, 1, 1, 0,12,30.00,45.00,Tuesday
7,-3.7249999999999998
8,3679.209538202409
9,1.0
10,602.01865277251
11,1.0
12,602.01865277251
13,3679.209538202409
14,7.158910988999949
15,21.286850195118594
16,12.18716560140524
17,1.3170933584638079
18,6.493028861894863
2,1, 1, 1, 0,12,45.00,60.00,Tuesday
7,-3.3
8,3004.1566594423727
9,1.0
10,493.55004396206007
11,1.0
12,493.55004396206007
13,3004.1566594423727
14,6.970770749428677
15,17.108491520555178
16,10.912047002510463
17,0.8053651808231734
18,6.556317129550614
2,1, 1, 1, 0,13, 0.00,15.00,Tuesday
7,-3.0249999999999996
8,2478.5249585002918
9,1.0
10,412.335026418112
11,1.0
12,412.335026418112
13,2478.5249585002918
14,6.838194821801112
15,14.264229319953131
16,9.90582461826466
17,0.4570554875384687
18,6.563471440735686
2,1, 1, 1, 0,13,15.00,30.00,Tuesday
7,-2.75
8,1813.607923487389
9,1.0
10,305.94037763660148
11,1.0
12,305.94037763660148
13,1813.607923487389
14,6.546035086165788
15,10.091020606022605
16,8.509474937459857
17,-0.13292700914837497
18,6.523537364120849
2,1, 1, 1, 0,13,30.00,45.00,Tuesday
7,-2.475
8,1654.8893441859719
9,1.0
10,281.0763483922329
11,1.0
12,281.0763483922329
13,1654.8893441859719
14,6.522825600695246
15,9.577764423965173
16,8.181299298129375
17,-0.027562070570695597
18,6.471047314056473
2,1, 1, 1, 0,13,45.00,60.00,Tuesday
7,-2.2
8,1499.4806745627048
9,1.0
10,256.7721209415886
11,1.0
12,256.7721209415886
13,1499.4806745627048
14,6.4903351312807
15,8.971484509156293
16,7.921862290729905
17,0.10229385192599239
18,6.425950474627729
2,1, 1, 1, 0,14, 0.00,15.00,Tuesday
7,-1.9250000000000003
8,1224.3719454629455
9,1.0
10,210.73276284570657
11,1.0
12,210.73276284570657
13,1224.3719454629455
14,6.3624300194542819
15,7.42359965799461
16,7.321327165285936
17,-0.0015393755963941658
18,6.385039504310506
2,1, 1, 1, 0,14,15.00,30.00,Tuesday
7,-1.6500000000000002
8,1086.7433473787776
9,1.0
10,189.38488290342594
11,1.0
12,189.38488290342594
13,1086.7433473787776
14,6.331539904115857
15,7.018327685202974
16,7.048821317310512
17,0.10540099527099756
18,6.349091735894563
2,1, 1, 1, 0,14,30.00,45.00,Tuesday
7,-1.375
8,1036.592369727833
9,1.0
10,179.3940297802914
11,1.0
12,179.3940297802914
13,1036.592369727833
14,6.32795449079856
15,7.140895794292733
16,6.981476503604824
17,0.3292667091811836
18,6.3195642807853409
2,1, 1, 1, 0,14,45.00,60.00,Tuesday
7,-1.1
8,985.7419423682961
9,1.0
10,169.43349014176136
11,1.0
12,169.43349014176136
13,985.7419423682961
14,6.322180692676309
15,7.239511077423287
16,6.909374892820608
17,0.5513814614656667
18,6.296265107017447
2,1, 1, 1, 0,15, 0.00,15.00,Tuesday
7,-1.1
8,1037.2484537857973
9,1.0
10,178.15692317953907
11,1.0
12,178.15692317953907
13,1037.2484537857973
14,6.379287233082459
15,8.056639938329509
16,7.05452236141889
17,0.6908748015515585
18,6.2822272102862108
2,1, 1, 1, 0,15,15.00,30.00,Tuesday
7,-1.1
8,974.2521551427433
9,1.0
10,166.40516310952945
11,1.0
12,166.40516310952945
13,974.2521551427433
14,6.333765153467727
15,7.693152375687369
16,6.894760661748023
17,0.6233081089809502
18,6.272047451511121
2,1, 1, 1, 0,15,30.00,45.00,Tuesday
7,-1.1
8,821.0202488449693
9,1.0
10,140.8967369711617
11,1.0
12,140.8967369711617
13,821.0202488449693
14,6.225458079529035
15,6.486045200235464
16,6.469591174273319
17,0.37807711473220709
18,6.254717943172181
2,1, 1, 1, 0,15,45.00,60.00,Tuesday
7,-1.1
8,675.2605630792375
9,1.0
10,116.57355796743004
11,1.0
12,116.57355796743004
13,675.2605630792375
14,6.11482540203226
15,5.275941538273994
16,6.0212173029466389
17,0.11750904028065179
18,6.221886781721824
2,1, 1, 1, 0,16, 0.00,15.00,Tuesday
7,-1.1
8,535.6425286328583
9,1.0
10,93.14939272689483
11,1.0
12,93.14939272689483
13,535.6425286328583
14,6.019930292587911
15,4.224967389779817
16,5.629974776787776
17,-0.06444069008455245
18,6.1724384071483959
2,1, 1, 1, 0,16,15.00,30.00,Tuesday
7,-1.1
8,332.3330240489987
9,1.0
10,57.94047897402063
11,1.0
12,57.94047897402063
13,332.3330240489987
14,5.839050243596433
15,2.0987655834734468
16,5.045575770428627
17,-0.4154528918693927
18,6.099913278813685
2,1, 1, 1, 0,16,30.00,45.00,Tuesday
7,-1.1
8,257.53933170088927
9,1.0
10,45.38251793443488
11,1.0
12,45.38251793443488
13,257.53933170088927
14,5.7695667892741568
15,1.4860485535854298
16,4.802478490400631
17,-0.49517063787345708
18,6.0137457609904809
2,1, 1, 1, 0,16,45.00,60.00,Tuesday
7,-1.1
8,179.70809909383628
9,1.0
10,32.02625108222755
11,1.0
12,32.02625108222755
13,179.70809909383628
14,5.664031704993694
15,0.6201466711877337
16,4.567200179212534
17,-0.5870791844051837
18,5.923997445648057
2,1, 1, 1, 0,17, 0.00,15.00,Tuesday
7,-1.1
8,98.54761882035462
9,1.0
10,17.762198626050539
11,1.0
12,17.762198626050539
13,98.54761882035462
14,5.529644605390367
15,-0.6347630947911344
16,4.273933644696342
17,-0.7990143165486643
18,5.832631534621569
2,1, 1, 1, 0,17,15.00,30.00,Tuesday
7,-1.1
8,0.0
9,0.0
10,0.0
11,0.0
12,0.0
13,0.0
14,5.347100361709334
15,-2.47357603347795
16,3.9050839888200814
17,-1.1099898064276204
18,5.730444698101026
2,1, 1, 1, 0,17,30.00,45.00,Tuesday
7,-1.1
8,0.0
9,0.0
10,0.0
11,0.0
12,0.0
13,0.0
14,5.29365030620185
15,-2.6110185400613665
16,3.8144723599892247
17,-1.1388854064186945
18,5.631483097054479
2,1, 1, 1, 0,17,45.00,60.00,Tuesday
7,-1.1
8,0.0
9,0.0
10,0.0
11,0.0
12,0.0
13,0.0
14,5.225622989986141
15,-2.8048029226991235
16,3.7629543458085097
17,-1.1570209880154608
18,5.548492604920012
2,1, 1, 1, 0,18, 0.00,15.00,Tuesday
7,-1.25
8,0.0
9,0.0
10,0.0
11,0.0
12,0.0
13,0.0
14,5.1691766115914989
15,-2.952270144869899
16,3.6753551626074456
17,-1.2926649381938092
18,5.482418063541175
2,1, 1, 1, 0,18,15.00,30.00,Tuesday
7,-1.4
8,0.0
9,0.0
10,0.0
11,0.0
12,0.0
13,0.0
14,5.11792604844723
15,-3.1046625773603777
16,3.603541401515713
17,-1.4205560608747874
18,5.428417912871568
2,1, 1, 1, 0,18,30.00,45.00,Tuesday
7,-1.5499999999999999
8,0.0
9,0.0
10,0.0
11,0.0
12,0.0
13,0.0
14,5.0709499619079489
15,-3.256541251229939
16,3.536030471670017
17,-1.547510568593907
18,5.3813081112998069
2,1, 1, 1, 0,18,45.00,60.00,Tuesday
7,-1.7
8,0.0
9,0.0
10,0.0
11,0.0
12,0.0
13,0.0
14,5.02611964832873
15,-3.408589058343468
16,3.4713999026598687
17,-1.6739070418054212
18,5.33768223218239
2,1, 1, 1, 0,19, 0.00,15.00,Tuesday
7,-1.825
8,0.0
9,0.0
10,0.0
11,0.0
12,0.0
13,0.0
14,5.007140593878
15,-3.256972555040462
16,3.4142499096951726
17,-1.7766950850222543
18,5.299381537176962
2,1, 1, 1, 0,19,15.00,30.00,Tuesday
7,-1.9500000000000002
8,0.0
9,0.0
10,0.0
11,0.0
12,0.0
13,0.0
14,4.987273282692892
15,-3.1872015642029409
16,3.364607750908533
17,-1.8833897732945389
18,5.268116070283737
2,1, 1, 1, 0,19,30.00,45.00,Tuesday
7,-2.075
8,0.0
9,0.0
10,0.0
11,0.0
12,0.0
13,0.0
14,4.962640217209351
15,-3.2601786356405335
16,3.3204423210452775
17,-1.98761041269006
18,5.242333361018967
2,1, 1, 1, 0,19,45.00,60.00,Tuesday
7,-2.2
8,0.0
9,0.0
10,0.0
11,0.0
12,0.0
13,0.0
14,4.9410899903233409
15,-3.2353360726926314
16,3.2743927817843998
17,-2.0975174250718284
18,5.218990216959232
2,1, 1, 1, 0,20, 0.00,15.00,Tuesday
7,-1.9250000000000003
8,0.0
9,0.0
10,0.0
11,0.0
12,0.0
13,0.0
14,4.936221418766552
15,-2.933508694347237
16,3.3200410349211326
17,-1.8863210637705948
18,5.198450314623229
2,1, 1, 1, 0,20,15.00,30.00,Tuesday
7,-1.6500000000000002
8,0.0
9,0.0
10,0.0
11,0.0
12,0.0
13,0.0
14,4.931100909223117
15,-2.634768400726721
16,3.3663403922646468
17,-1.6616085069011888
18,5.181138037915999
2,1, 1, 1, 0,20,30.00,45.00,Tuesday
7,-1.375
8,0.0
9,0.0
10,0.0
11,0.0
12,0.0
13,0.0
14,4.927702187473905
15,-2.337307491034484
16,3.4141117282969164
17,-1.434448507177251
18,5.166632939383968
2,1, 1, 1, 0,20,45.00,60.00,Tuesday
7,-1.1
8,0.0
9,0.0
10,0.0
11,0.0
12,0.0
13,0.0
14,4.9258319711092659
15,-2.0411408736699214
16,3.4638745834838575
17,-1.2052014083126892
18,5.154251693629782
2,1, 1, 1, 0,21, 0.00,15.00,Tuesday
7,-1.25
8,0.0
9,0.0
10,0.0
11,0.0
12,0.0
13,0.0
14,4.881091162868528
15,-2.3249157607922936
16,3.4180061182331658
17,-1.3147997189056469
18,5.137269792072426
2,1, 1, 1, 0,21,15.00,30.00,Tuesday
7,-1.4
8,0.0
9,0.0
10,0.0
11,0.0
12,0.0
13,0.0
14,4.837662895622873
15,-2.5428672881209679
16,3.363683695607392
17,-1.4308157321338513
18,5.111002492958399
2,1, 1, 1, 0,21,30.00,45.00,Tuesday
7,-1.5499999999999999
8,0.0
9,0.0
10,0.0
11,0.0
12,0.0
13,0.0
14,4.780538850207024
15,-2.890697048478644
16,3.3074083212146094
17,-1.5449699172297642
18,5.074439410877125
2,1, 1, 1, 0,21,45.00,60.00,Tuesday
7,-1.7
8,0.0
9,0.0
10,0.0
11,0.0
12,0.0
13,0.0
14,4.71805234494516
15,-3.3466187561262945
16,3.2447780986885279
17,-1.6536564293461425
18,5.029678837042882
2,1, 1, 1, 0,22, 0.00,15.00,Tuesday
7,-1.5499999999999999
8,0.0
9,0.0
10,0.0
11,0.0
12,0.0
13,0.0
14,4.726309632280281
15,-2.85435122273099
16,3.236199044318255
17,-1.5647048731526639
18,4.990492771109673
2,1, 1, 1, 0,22,15.00,30.00,Tuesday
7,-1.4
8,0.0
9,0.0
10,0.0
11,0.0
12,0.0
13,0.0
14,4.723727333624428
15,-2.5210351753808388
16,3.255981950969499
17,-1.4526500229839599
18,4.964302506570285
2,1, 1, 1, 0,22,30.00,45.00,Tuesday
7,-1.25
8,0.0
9,0.0
10,0.0
11,0.0
12,0.0
13,0.0
14,4.7202378023503039
15,-2.299475066896404
16,3.277399032164112
17,-1.3368276844207686
18,4.948930477891009
2,1, 1, 1, 0,22,45.00,60.00,Tuesday
7,-1.1
8,0.0
9,0.0
10,0.0
11,0.0
12,0.0
13,0.0
14,4.720722730240708
15,-2.014376153888172
16,3.303284982848595
17,-1.2134426117840463
18,4.939224701500669
2,1, 1, 1, 0,23, 0.00,15.00,Tuesday
7,-1.25
8,0.0
9,0.0
10,0.0
11,0.0
12,0.0
13,0.0
14,4.675670738847368
15,-2.3178269381416767
16,3.21414871096232
17,-1.4873056847289946
18,4.924730060825219
2,1, 1, 1, 0,23,15.00,30.00,Tuesday
7,-1.4
8,0.0
9,0.0
10,0.0
11,0.0
12,0.0
13,0.0
14,4.6333324951152499
15,-2.6223997444145805
16,3.1136806276343806
17,-1.779803980484985
18,4.900141591588201
2,1, 1, 1, 0,23,30.00,45.00,Tuesday
7,-1.5499999999999999
8,0.0
9,0.0
10,0.0
11,0.0
12,0.0
13,0.0
14,4.586529718740627
15,-2.9276250220062955
16,3.0122536881929706
17,-2.071572932649076
18,4.86640881965219
2,1, 1, 1, 0,23,45.00,60.00,Tuesday
7,-1.7
8,0.0
9,0.0
10,0.0
11,0.0
12,0.0
13,0.0
14,4.535869582551901
15,-3.2331938125944688
16,2.9072124694416745
17,-2.3638563468973645
18,4.826428712835449
2,1, 1, 1, 0,24, 0.00,15.00,Tuesday
7,-1.7
8,0.0
9,0.0
10,0.0
11,0.0
12,0.0
13,0.0
14,4.502579285991704
15,-3.2871402135493548
16,2.8612089250520968
17,-2.4255911849375026
18,4.785842757547501
2,1, 1, 1, 0,24,15.00,30.00,Tuesday
7,-1.7
8,0.0
9,0.0
10,0.0
11,0.0
12,0.0
13,0.0
14,4.466192535068747
15,-3.341784703907681
16,2.8194057518668957
17,-2.4858854548909337
18,4.747658315192663
2,1, 1, 1, 0,24,30.00,45.00,Tuesday
7,-1.7
8,0.0
9,0.0
10,0.0
11,0.0
12,0.0
13,0.0
14,4.430799283451695
15,-3.3962818721802554
16,2.7771285329899344
17,-2.5462945111578394
18,4.711888550003137
2,1, 1, 1, 0,24,45.00,60.00,Tuesday
7,-1.7
8,0.0
9,0.0
10,0.0
11,0.0
12,0.0
13,0.0
14,4.39615494820991
15,-3.4507823163315765
16,2.735689316431433
17,-2.6064300717632706
18,4.677558598281931
End of Data
 Number of Records Written=        1152
