Program Version,EnergyPlus, Version 9.5.0-de239b2e5f, YMD=2022.11.01 22:08
1,5,Environment Title[],Latitude[deg],Longitude[deg],Time Zone[],Elevation[m]
2,8,Day of Simulation[],Month[],Day of Month[],DST Indicator[1=yes 0=no],Hour[],StartMinute[],EndMinute[],DayType
3,5,Cumulative Day of Simulation[],Month[],Day of Month[],DST Indicator[1=yes 0=no],DayType  ! When Daily Report Variables Requested
4,2,Cumulative Days of Simulation[],Month[]  ! When Monthly Report Variables Requested
5,1,Cumulative Days of Simulation[] ! When Run Period Report Variables Requested
6,1,Calendar Year of Simulation[] ! When Annual Report Variables Requested
7,1,Environment,Site Outdoor Air Drybulb Temperature [C] !TimeStep
8,1,ZONE ONE,Zone Windows Total Transmitted Solar Radiation Rate [W] !TimeStep
9,1,ZN001:WALL001,Surface Outside Face Sunlit Fraction [] !TimeStep
10,1,ZN001:WALL001,Surface Outside Face Incident Solar Radiation Rate per Area [W/m2] !TimeStep
11,1,ZN001:WALL001:WIN001,Surface Outside Face Sunlit Fraction [] !TimeStep
12,1,ZN001:WALL001:WIN001,Surface Outside Face Incident Solar Radiation Rate per Area [W/m2] !TimeStep
13,1,ZN001:WALL001:WIN001,Surface Window Transmitted Solar Radiation Rate [W] !TimeStep
14,1,ZN001:WALL001,Surface Inside Face Temperature [C] !TimeStep
15,1,ZN001:WALL001,Surface Outside Face Temperature [C] !TimeStep
16,1,ZN001:WALL001:WIN001,Surface Inside Face Temperature [C] !TimeStep
17,1,ZN001:WALL001:WIN001,Surface Outside Face Temperature [C] !TimeStep
18,1,ZONE ONE,Zone Mean Air Temperature [C] !TimeStep
End of Data Dictionary
1,RUN PERIOD 1,  41.98, -87.92,  -6.00, 201.00
2,1, 1, 1, 0, 1, 0.00,15.00,Tuesday
7,-4.324999999999999
8,0.0
9,0.0
10,0.0
11,0.0
12,0.0
13,0.0
14,5.596744904495819
15,-5.901993576237078
16,3.3266430527766035
17,-4.435879624039558
18,6.048954478422001
2,1, 1, 1, 0, 1,15.00,30.00,Tuesday
7,-6.949999999999999
8,0.0
9,0.0
10,0.0
11,0.0
12,0.0
13,0.0
14,5.415178219545697
15,-8.3694774980591
16,2.7207120027675275
17,-6.52348646430454
18,5.9518802535719399
2,1, 1, 1, 0, 1,30.00,45.00,Tuesday
7,-9.575
8,0.0
9,0.0
10,0.0
11,0.0
12,0.0
13,0.0
14,5.213670638321174
15,-10.844948166831646
16,2.1090359719534605
17,-8.617491695815318
18,5.82290530013024
2,1, 1, 1, 0, 1,45.00,60.00,Tuesday
7,-12.2
8,0.0
9,0.0
10,0.0
11,0.0
12,0.0
13,0.0
14,4.996302276307592
15,-13.32703512011463
16,1.4826839463315196
17,-10.719209522261395
18,5.671719816697425
2,1, 1, 1, 0, 2, 0.00,15.00,Tuesday
7,-12.075
8,0.0
9,0.0
10,0.0
11,0.0
12,0.0
13,0.0
14,4.92863024498733
15,-13.128071493563042
16,1.413961338833758
17,-10.562221908761672
18,5.535386624162051
2,1, 1, 1, 0, 2,15.00,30.00,Tuesday
7,-11.95
8,0.0
9,0.0
10,0.0
11,0.0
12,0.0
13,0.0
14,4.84732106761161
15,-12.950990517959918
16,1.3807241202429737
17,-10.417253359833865
18,5.430953669279145
2,1, 1, 1, 0, 2,30.00,45.00,Tuesday
7,-11.825
8,0.0
9,0.0
10,0.0
11,0.0
12,0.0
13,0.0
14,4.783175809462596
15,-12.772745920806136
16,1.353081743976361
17,-10.271882291562747
18,5.353092280654476
2,1, 1, 1, 0, 2,45.00,60.00,Tuesday
7,-11.7
8,0.0
9,0.0
10,0.0
11,0.0
12,0.0
13,0.0
14,4.730233357347687
15,-12.594579460972673
16,1.3381255231130354
17,-10.123865072841113
18,5.290812620287741
2,1, 1, 1, 0, 3, 0.00,15.00,Tuesday
7,-11.549999999999999
8,0.0
9,0.0
10,0.0
11,0.0
12,0.0
13,0.0
14,4.679005542976838
15,-12.468433280943338
16,1.3336221101379238
17,-9.987404079962574
18,5.235233461141469
2,1, 1, 1, 0, 3,15.00,30.00,Tuesday
7,-11.399999999999999
8,0.0
9,0.0
10,0.0
11,0.0
12,0.0
13,0.0
14,4.63090525775689
15,-12.343651356506158
16,1.3240838523324783
17,-9.831678785651036
18,5.181855347369717
2,1, 1, 1, 0, 3,30.00,45.00,Tuesday
7,-11.25
8,0.0
9,0.0
10,0.0
11,0.0
12,0.0
13,0.0
14,4.583760434129103
15,-12.220393136964344
16,1.323119661094438
17,-9.694200906962863
18,5.12946896951998
2,1, 1, 1, 0, 3,45.00,60.00,Tuesday
7,-11.1
8,0.0
9,0.0
10,0.0
11,0.0
12,0.0
13,0.0
14,4.537022567333923
15,-12.098709303927189
16,1.3159294327432463
17,-9.53888646458745
18,5.077852089205221
2,1, 1, 1, 0, 4, 0.00,15.00,Tuesday
7,-11.1
8,0.0
9,0.0
10,0.0
11,0.0
12,0.0
13,0.0
14,4.486622362058727
15,-12.070394303043317
16,1.263688534297387
17,-9.574651267226102
18,5.026166792609631
2,1, 1, 1, 0, 4,15.00,30.00,Tuesday
7,-11.1
8,0.0
9,0.0
10,0.0
11,0.0
12,0.0
13,0.0
14,4.436600666260849
15,-12.043169296414219
16,1.2145165106469449
17,-9.609588773689893
18,4.97407658330469
2,1, 1, 1, 0, 4,30.00,45.00,Tuesday
7,-11.1
8,0.0
9,0.0
10,0.0
11,0.0
12,0.0
13,0.0
14,4.38640864080966
15,-12.017472922548564
16,1.165712224268077
17,-9.643604289527389
18,4.921690229739328
2,1, 1, 1, 0, 4,45.00,60.00,Tuesday
7,-11.1
8,0.0
9,0.0
10,0.0
11,0.0
12,0.0
13,0.0
14,4.336146918147847
15,-11.993174574078497
16,1.1171015878534832
17,-9.676618097682422
18,4.869215676200875
2,1, 1, 1, 0, 5, 0.00,15.00,Tuesday
7,-10.975
8,0.0
9,0.0
10,0.0
11,0.0
12,0.0
13,0.0
14,4.291515773983568
15,-11.871206535350148
16,1.1050502026516825
17,-9.590218058981634
18,4.817851773582839
2,1, 1, 1, 0, 5,15.00,30.00,Tuesday
7,-10.85
8,0.0
9,0.0
10,0.0
11,0.0
12,0.0
13,0.0
14,4.247098307690674
15,-11.749310480945438
16,1.0908894187390388
17,-9.495804662952878
18,4.768083134919213
2,1, 1, 1, 0, 5,30.00,45.00,Tuesday
7,-10.725
8,0.0
9,0.0
10,0.0
11,0.0
12,0.0
13,0.0
14,4.203702855295855
15,-11.627392019466783
16,1.0770095725025613
17,-9.400545342897999
18,4.719685129591882
2,1, 1, 1, 0, 5,45.00,60.00,Tuesday
7,-10.6
8,0.0
9,0.0
10,0.0
11,0.0
12,0.0
13,0.0
14,4.161159762542127
15,-11.505483075237832
16,1.0639273390039535
17,-9.305050813540902
18,4.67228231235243
2,1, 1, 1, 0, 6, 0.00,15.00,Tuesday
7,-10.6
8,0.0
9,0.0
10,0.0
11,0.0
12,0.0
13,0.0
14,4.111612764142969
15,-11.506455214094402
16,1.0218432067600248
17,-9.306149516687015
18,4.6242749101988889
2,1, 1, 1, 0, 6,15.00,30.00,Tuesday
7,-10.6
8,0.0
9,0.0
10,0.0
11,0.0
12,0.0
13,0.0
14,4.0626984628557
15,-11.507371024036189
16,0.9807922979607042
17,-9.313927213761076
18,4.574951403857609
2,1, 1, 1, 0, 6,30.00,45.00,Tuesday
7,-10.6
8,0.0
9,0.0
10,0.0
11,0.0
12,0.0
13,0.0
14,4.013248383891697
15,-11.508328970313372
16,0.9399265293625376
17,-9.322294255286295
18,4.52458929402153
2,1, 1, 1, 0, 6,45.00,60.00,Tuesday
7,-10.6
8,0.0
9,0.0
10,0.0
11,0.0
12,0.0
13,0.0
14,3.963484957421097
15,-11.509284996166798
16,0.8986984400606843
17,-9.330809379303446
18,4.473702219453476
2,1, 1, 1, 0, 7, 0.00,15.00,Tuesday
7,-10.6
8,0.0
9,0.0
10,0.0
11,0.0
12,0.0
13,0.0
14,3.9157156230193377
15,-11.485886125887323
16,0.8512728554552496
17,-9.358786728095027
18,4.42296152942359
2,1, 1, 1, 0, 7,15.00,30.00,Tuesday
7,-10.6
8,0.0
9,0.0
10,0.0
11,0.0
12,0.0
13,0.0
14,3.8678248461202187
15,-11.463700452048642
16,0.805686517205686
17,-9.386931514150092
18,4.372715617370609
2,1, 1, 1, 0, 7,30.00,45.00,Tuesday
7,-10.6
8,0.0
9,0.0
10,0.0
11,0.0
12,0.0
13,0.0
14,3.8202250738996899
15,-11.442643255899713
16,0.7605298653679711
17,-9.414326805695623
18,4.3229479187202879
2,1, 1, 1, 0, 7,45.00,60.00,Tuesday
7,-10.6
8,0.0
9,0.0
10,0.0
11,0.0
12,0.0
13,0.0
14,3.7729240949228415
15,-11.422647650730515
16,0.7158597151620825
17,-9.440838886245502
18,4.273544976678959
2,1, 1, 1, 0, 8, 0.00,15.00,Tuesday
7,-10.45
8,0.0
9,0.0
10,0.0
11,0.0
12,0.0
13,0.0
14,3.7250242895321485
15,-11.373548226411053
16,0.6953206826090082
17,-9.390213037597505
18,4.224174239948754
2,1, 1, 1, 0, 8,15.00,30.00,Tuesday
7,-10.3
8,154.6766737683697
9,1.0
10,22.819555959623899
11,1.0
12,22.819555959623899
13,154.6766737683697
14,3.7970890007192339
15,-9.699973511267145
16,1.0003611633708829
17,-9.058866012278543
18,4.192830606471246
2,1, 1, 1, 0, 8,30.00,45.00,Tuesday
7,-10.15
8,759.464018587477
9,1.0
10,109.75755355442667
11,1.0
12,109.75755355442667
13,759.464018587477
14,4.196448990591338
15,-3.330257350800174
16,2.296459430702839
17,-7.9259291743487669
18,4.229665380131214
2,1, 1, 1, 0, 8,45.00,60.00,Tuesday
7,-10.0
8,1381.0037869226893
9,1.0
10,195.8764694434918
11,1.0
12,195.8764694434918
13,1381.0037869226893
14,4.7070885548802929
15,3.155497021678053
16,3.732826289969921
17,-6.78151557938105
18,4.341736703055574
2,1, 1, 1, 0, 9, 0.00,15.00,Tuesday
7,-9.725
8,2000.4027330911106
9,1.0
10,278.97248314719988
11,1.0
12,278.97248314719988
13,2000.4027330911106
14,5.123069974594411
15,8.329783218673553
16,5.220587574977117
17,-5.75736285593905
18,4.506872124715534
2,1, 1, 1, 0, 9,15.00,30.00,Tuesday
7,-9.45
8,2653.320201414325
9,1.0
10,364.91995730569456
11,1.0
12,364.91995730569456
13,2653.320201414325
14,5.56098988572162
15,13.40809949062679
16,6.655424802367406
17,-4.729226621986129
18,4.716907992858462
2,1, 1, 1, 0, 9,30.00,45.00,Tuesday
7,-9.175
8,3085.2879176023818
9,1.0
10,420.35879993239237
11,1.0
12,420.35879993239237
13,3085.2879176023818
14,5.871083369984969
15,16.165715438946216
16,7.621397550893221
17,-4.093823344391012
18,4.951894752463376
2,1, 1, 1, 0, 9,45.00,60.00,Tuesday
7,-8.9
8,3533.7057043640695
9,1.0
10,478.00138373643099
11,1.0
12,478.00138373643099
13,3533.7057043640695
14,6.234524362322073
15,19.16047581355176
16,8.582303217999709
17,-3.4367256045214846
18,5.201253579639575
2,1, 1, 1, 0,10, 0.00,15.00,Tuesday
7,-8.350000000000002
8,3991.597294148377
9,1.0
10,536.9185644770597
11,1.0
12,536.9185644770597
13,3991.597294148377
14,6.544575247985108
15,20.277115502135549
16,9.573251135105693
17,-2.7397910474567199
18,5.464966563190653
2,1, 1, 1, 0,10,15.00,30.00,Tuesday
7,-7.800000000000001
8,4465.307663108547
9,1.0
10,598.0969199229219
11,1.0
12,598.0969199229219
13,4465.307663108547
14,6.883290813338579
15,21.52940534579422
16,10.58024313065107
17,-2.0450754824796606
18,5.749423204882922
2,1, 1, 1, 0,10,30.00,45.00,Tuesday
7,-7.25
8,4776.067163202165
9,1.0
10,637.6133352894237
11,1.0
12,637.6133352894237
13,4776.067163202165
14,7.146164032703898
15,21.588463090732
16,11.309962481432536
17,-1.5557308113150157
18,6.047283741559438
2,1, 1, 1, 0,10,45.00,60.00,Tuesday
7,-6.7
8,5082.249340918465
9,1.0
10,676.6412284283772
11,1.0
12,676.6412284283772
13,5082.249340918465
14,7.4343979923316179
15,21.74820422235031
16,12.013761476986133
17,-1.0694657197798279
18,6.346737878408409
2,1, 1, 1, 0,11, 0.00,15.00,Tuesday
7,-6.275
8,5382.861284170396
9,1.0
10,715.0112779846514
11,1.0
12,715.0112779846514
13,5382.861284170396
14,7.800007177727051
15,23.84622549318252
16,12.759123510298764
17,-0.3590166603955822
18,6.464672146761014
2,1, 1, 1, 0,11,15.00,30.00,Tuesday
7,-5.85
8,5676.397195343611
9,1.0
10,752.5077794605232
11,1.0
12,752.5077794605232
13,5676.397195343611
14,8.107035346978588
15,25.78022569688061
16,13.471658110377348
17,0.3278930431555409
18,6.707042191461503
2,1, 1, 1, 0,11,30.00,45.00,Tuesday
7,-5.425
8,5589.158788442272
9,1.0
10,742.5988714321785
11,1.0
12,742.5988714321785
13,5589.158788442272
14,8.249791093676502
15,25.631321271797697
16,13.582714597399786
17,0.6143458869614733
18,6.880517303593901
2,1, 1, 1, 0,11,45.00,60.00,Tuesday
7,-5.0
8,5464.505279107938
9,1.0
10,727.8169025450712
11,1.0
12,727.8169025450712
13,5464.505279107938
14,8.459177519366703
15,25.403700686450159
16,13.638652659319178
17,0.8746966028109
18,7.154808027785453
2,1, 1, 1, 0,12, 0.00,15.00,Tuesday
7,-4.575
8,5250.139011856156
9,1.0
10,700.3759009170325
11,1.0
12,700.3759009170325
13,5250.139011856156
14,8.560937010938286
15,24.660136602581749
16,13.540198487987084
17,1.0770234161625468
18,7.2954610644026209
2,1, 1, 1, 0,12,15.00,30.00,Tuesday
7,-4.15
8,5091.158693260568
9,1.0
10,681.6705029034473
11,1.0
12,681.6705029034473
13,5091.158693260568
14,8.738380994127813
15,24.331011766231748
16,13.536469478979143
17,1.3482086645249183
18,7.523884543098556
2,1, 1, 1, 0,12,30.00,45.00,Tuesday
7,-3.7249999999999998
8,4469.613315122642
9,1.0
10,602.01865277251
11,1.0
12,602.01865277251
13,4469.613315122642
14,8.63354565536693
15,21.302085240934749
16,12.788187168798345
17,1.1408746889728719
18,7.770471529754584
2,1, 1, 1, 0,12,45.00,60.00,Tuesday
7,-3.3
8,3650.3893394354197
9,1.0
10,493.55004396206007
11,1.0
12,493.55004396206007
13,3650.3893394354197
14,8.493244795591814
15,17.12594757735922
16,11.621505194573729
17,0.6893459951498357
18,7.9401735374402089
2,1, 1, 1, 0,13, 0.00,15.00,Tuesday
7,-3.0249999999999996
8,3014.112650181704
9,1.0
10,412.335026418112
11,1.0
12,412.335026418112
13,3014.112650181704
14,8.398313609444373
15,14.282303827386374
16,10.709479350914649
17,0.38576631004150388
18,8.02164598613308
2,1, 1, 1, 0,13,15.00,30.00,Tuesday
7,-2.75
8,2207.559991315059
9,1.0
10,305.94037763660148
11,1.0
12,305.94037763660148
13,2207.559991315059
14,8.123567676641596
15,10.109776126179325
16,9.41997448889174
17,-0.14420954235527007
18,8.024199233800097
2,1, 1, 1, 0,13,30.00,45.00,Tuesday
7,-2.475
8,2015.424127399388
9,1.0
10,281.0763483922329
11,1.0
12,281.0763483922329
13,2015.424127399388
14,8.111451289537554
15,9.597777728520006
16,9.120332091385933
17,-0.023637326582672814
18,7.995468883149672
2,1, 1, 1, 0,13,45.00,60.00,Tuesday
7,-2.2
8,1827.2907190823785
9,1.0
10,256.7721209415886
11,1.0
12,256.7721209415886
13,1827.2907190823785
14,8.080431124626319
15,8.990540599460094
16,8.884915243151284
17,0.1201424196339076
18,7.9667977008846819
2,1, 1, 1, 0,14, 0.00,15.00,Tuesday
7,-1.9250000000000003
8,1492.7106735241646
9,1.0
10,210.73276284570657
11,1.0
12,210.73276284570657
13,1492.7106735241646
14,7.946337424336293
15,7.443583519028012
16,8.32159051778558
17,0.044770687501340947
18,7.938192259663789
2,1, 1, 1, 0,14,15.00,30.00,Tuesday
7,-1.6500000000000002
8,1326.0089176323932
9,1.0
10,189.38488290342594
11,1.0
12,189.38488290342594
13,1326.0089176323932
14,7.9130474272229549
15,7.037133757990123
16,8.055720981647426
17,0.16376365129485749
18,7.911730693437713
2,1, 1, 1, 0,14,30.00,45.00,Tuesday
7,-1.375
8,1264.6372426760943
9,1.0
10,179.3940297802914
11,1.0
12,179.3940297802914
13,1264.6372426760943
14,7.907610840194433
15,7.161566759691728
16,8.000441624159123
17,0.3975017708073665
18,7.889703131114798
2,1, 1, 1, 0,14,45.00,60.00,Tuesday
7,-1.1
8,1202.5644299872959
9,1.0
10,169.43349014176136
11,1.0
12,169.43349014176136
13,1202.5644299872959
14,7.898165979315092
15,7.260912699776223
16,7.937987571613178
17,0.629287318515253
18,7.871919349610698
2,1, 1, 1, 0,15, 0.00,15.00,Tuesday
7,-1.1
8,1265.7745073451216
9,1.0
10,178.15692317953907
11,1.0
12,178.15692317953907
13,1265.7745073451216
14,7.960060596043524
15,8.0789385867177
16,8.082478992611073
17,0.7653521158015337
18,7.861764530614288
2,1, 1, 1, 0,15,15.00,30.00,Tuesday
7,-1.1
8,1189.1603867528648
9,1.0
10,166.40516310952945
11,1.0
12,166.40516310952945
13,1189.1603867528648
14,7.909948369807525
15,7.715986947460199
16,7.932948835040065
17,0.7083921382242124
18,7.854174679653574
2,1, 1, 1, 0,15,30.00,45.00,Tuesday
7,-1.1
8,1002.6786716495619
9,1.0
10,140.8967369711617
11,1.0
12,140.8967369711617
13,1002.6786716495619
14,7.793152000187621
15,6.50940565777141
16,7.518865764809902
17,0.4769127868233909
18,7.83965455545815
2,1, 1, 1, 0,15,45.00,60.00,Tuesday
7,-1.1
8,825.1228302215741
9,1.0
10,116.57355796743004
11,1.0
12,116.57355796743004
13,825.1228302215741
14,7.679292018591472
15,5.301328936142444
16,7.121652432768599
17,0.24952547222244449
18,7.807106511245653
2,1, 1, 1, 0,16, 0.00,15.00,Tuesday
7,-1.1
8,654.8645552799642
9,1.0
10,93.14939272689483
11,1.0
12,93.14939272689483
13,654.8645552799642
14,7.57851248453805
15,4.251510039424574
16,6.770622083240596
17,0.09664381825592727
18,7.754562177048258
2,1, 1, 1, 0,16,15.00,30.00,Tuesday
7,-1.1
8,406.5411025205533
9,1.0
10,57.94047897402063
11,1.0
12,57.94047897402063
13,406.5411025205533
14,7.386874120145758
15,2.1275933325167939
16,6.238452397387846
17,-0.20674556736577189
18,7.675054505447837
2,1, 1, 1, 0,16,30.00,45.00,Tuesday
7,-1.1
8,315.2021534604181
9,1.0
10,45.38251793443488
11,1.0
12,45.38251793443488
13,315.2021534604181
14,7.311600414771584
15,1.5174550299488095
16,6.008969313532361
17,-0.2656329497896195
18,7.58113865674098
2,1, 1, 1, 0,16,45.00,60.00,Tuesday
7,-1.1
8,220.03198535718725
9,1.0
10,32.02625108222755
11,1.0
12,32.02625108222755
13,220.03198535718725
14,7.1971547482663669
15,0.6546002721509578
16,5.791254146419703
17,-0.3292205541472981
18,7.487071880724903
2,1, 1, 1, 0,17, 0.00,15.00,Tuesday
7,-1.1
8,120.68723579153132
9,1.0
10,17.762198626050539
11,1.0
12,17.762198626050539
13,120.68723579153132
14,7.057582810369844
15,-0.5959822263278891
16,5.518017876522492
17,-0.50597584889789
18,7.393373262759736
2,1, 1, 1, 0,17,15.00,30.00,Tuesday
7,-1.1
8,0.0
9,0.0
10,0.0
11,0.0
12,0.0
13,0.0
14,6.868614592126281
15,-2.432916700709049
16,5.173045558563331
17,-0.7893166889681424
18,7.288562740183863
2,1, 1, 1, 0,17,30.00,45.00,Tuesday
7,-1.1
8,0.0
9,0.0
10,0.0
11,0.0
12,0.0
13,0.0
14,6.812180278694252
15,-2.568465604888556
16,5.085106543965139
17,-0.7895487274431616
18,7.186704663266047
2,1, 1, 1, 0,17,45.00,60.00,Tuesday
7,-1.1
8,0.0
9,0.0
10,0.0
11,0.0
12,0.0
13,0.0
14,6.740402046057971
15,-2.7588597709035218
16,5.038098236891187
17,-0.7734382325234037
18,7.101023604178678
2,1, 1, 1, 0,18, 0.00,15.00,Tuesday
7,-1.25
8,0.0
9,0.0
10,0.0
11,0.0
12,0.0
13,0.0
14,6.680097582909464
15,-2.9067718484366087
16,4.948777060405234
17,-0.912675490785432
18,7.0322626019289669
2,1, 1, 1, 0,18,15.00,30.00,Tuesday
7,-1.4
8,0.0
9,0.0
10,0.0
11,0.0
12,0.0
13,0.0
14,6.625073836038384
15,-3.059192350865816
16,4.873352517836338
17,-1.0434759333380158
18,6.975293155389951
2,1, 1, 1, 0,18,30.00,45.00,Tuesday
7,-1.5499999999999999
8,0.0
9,0.0
10,0.0
11,0.0
12,0.0
13,0.0
14,6.57427184450717
15,-3.2111564107858299
16,4.802261223484209
17,-1.1734354897135973
18,6.924815973086585
2,1, 1, 1, 0,18,45.00,60.00,Tuesday
7,-1.7
8,0.0
9,0.0
10,0.0
11,0.0
12,0.0
13,0.0
14,6.52550537019368
15,-3.3632891680316616
16,4.73404917419316
17,-1.3026739474186116
18,6.8774685997492119
2,1, 1, 1, 0,19, 0.00,15.00,Tuesday
7,-1.825
8,0.0
9,0.0
10,0.0
11,0.0
12,0.0
13,0.0
14,6.501658585644329
15,-3.216919482825758
16,4.66168584124398
17,-1.445594047487191
18,6.83507765288043
2,1, 1, 1, 0,19,15.00,30.00,Tuesday
7,-1.9500000000000002
8,0.0
9,0.0
10,0.0
11,0.0
12,0.0
13,0.0
14,6.476729711619399
15,-3.151769330114163
16,4.601428697859262
17,-1.5818330884155785
18,6.799414972314069
2,1, 1, 1, 0,19,30.00,45.00,Tuesday
7,-2.075
8,0.0
9,0.0
10,0.0
11,0.0
12,0.0
13,0.0
14,6.447329548581537
15,-3.2260105886944965
16,4.552482485624921
17,-1.6947453367387198
18,6.769046083878927
2,1, 1, 1, 0,19,45.00,60.00,Tuesday
7,-2.2
8,0.0
9,0.0
10,0.0
11,0.0
12,0.0
13,0.0
14,6.420844265910057
15,-3.2052283817095867
16,4.49662816214709
17,-1.8272883618611218
18,6.740930130861718
2,1, 1, 1, 0,20, 0.00,15.00,Tuesday
7,-1.9250000000000003
8,0.0
9,0.0
10,0.0
11,0.0
12,0.0
13,0.0
14,6.4101423316014138
15,-2.9044144658162178
16,4.537583928513072
17,-1.6198109822851735
18,6.71550550676368
2,1, 1, 1, 0,20,15.00,30.00,Tuesday
7,-1.6500000000000002
8,0.0
9,0.0
10,0.0
11,0.0
12,0.0
13,0.0
14,6.399945710970443
15,-2.606554478639864
16,4.577468320169714
17,-1.4007430720615162
18,6.693295889190578
2,1, 1, 1, 0,20,30.00,45.00,Tuesday
7,-1.375
8,0.0
9,0.0
10,0.0
11,0.0
12,0.0
13,0.0
14,6.3924961319501369
15,-2.3099647969519534
16,4.618828659486837
17,-1.1800243876031687
18,6.674043300143749
2,1, 1, 1, 0,20,45.00,60.00,Tuesday
7,-1.1
8,0.0
9,0.0
10,0.0
11,0.0
12,0.0
13,0.0
14,6.385598535898297
15,-2.01466255332328
16,4.6624812862336288
17,-0.9573861447563559
18,6.6570163277233
2,1, 1, 1, 0,21, 0.00,15.00,Tuesday
7,-1.25
8,0.0
9,0.0
10,0.0
11,0.0
12,0.0
13,0.0
14,6.336968970175541
15,-2.294282985284852
16,4.620428745295726
17,-1.0444127332963263
18,6.635333405014097
2,1, 1, 1, 0,21,15.00,30.00,Tuesday
7,-1.4
8,0.0
9,0.0
10,0.0
11,0.0
12,0.0
13,0.0
14,6.289991690843996
15,-2.5100156896953718
16,4.565749388933739
17,-1.1484117599238744
18,6.604332654003837
2,1, 1, 1, 0,21,30.00,45.00,Tuesday
7,-1.5499999999999999
8,0.0
9,0.0
10,0.0
11,0.0
12,0.0
13,0.0
14,6.229590507747323
15,-2.852354045700663
16,4.514552077328403
17,-1.2326968162388994
18,6.563219604272959
2,1, 1, 1, 0,21,45.00,60.00,Tuesday
7,-1.7
8,0.0
9,0.0
10,0.0
11,0.0
12,0.0
13,0.0
14,6.163907827124042
15,-3.301980399280956
16,4.463862207183297
17,-1.2918997867639064
18,6.514268145448367
2,1, 1, 1, 0,22, 0.00,15.00,Tuesday
7,-1.5499999999999999
8,0.0
9,0.0
10,0.0
11,0.0
12,0.0
13,0.0
14,6.166303597708564
15,-2.8171372890174695
16,4.4362508881444
17,-1.248153644915476
18,6.470992862294884
2,1, 1, 1, 0,22,15.00,30.00,Tuesday
7,-1.4
8,0.0
9,0.0
10,0.0
11,0.0
12,0.0
13,0.0
14,6.158795750584127
15,-2.4888480101274785
16,4.442804220571588
17,-1.169305055551149
18,6.440676707515367
2,1, 1, 1, 0,22,30.00,45.00,Tuesday
7,-1.25
8,0.0
9,0.0
10,0.0
11,0.0
12,0.0
13,0.0
14,6.150212087567757
15,-2.2695781334081226
16,4.457023208826115
17,-1.0679902393756607
18,6.421040389414672
2,1, 1, 1, 0,22,45.00,60.00,Tuesday
7,-1.1
8,0.0
9,0.0
10,0.0
11,0.0
12,0.0
13,0.0
14,6.14560594286609
15,-1.9885355975144628
16,4.471639151890486
17,-0.9695732401726787
18,6.406820491629549
2,1, 1, 1, 0,23, 0.00,15.00,Tuesday
7,-1.25
8,0.0
9,0.0
10,0.0
11,0.0
12,0.0
13,0.0
14,6.096490017203199
15,-2.2918928467518078
16,4.380880195443524
17,-1.2448615138085302
18,6.3874680764400859
2,1, 1, 1, 0,23,15.00,30.00,Tuesday
7,-1.4
8,0.0
9,0.0
10,0.0
11,0.0
12,0.0
13,0.0
14,6.050385340224785
15,-2.5964945463859365
16,4.278066465270513
17,-1.5378521694975689
18,6.357867242409284
2,1, 1, 1, 0,23,30.00,45.00,Tuesday
7,-1.5499999999999999
8,0.0
9,0.0
10,0.0
11,0.0
12,0.0
13,0.0
14,5.999550519894967
15,-2.90177060489659
16,4.173357495761252
17,-1.8333956167113002
18,6.31920326643793
2,1, 1, 1, 0,23,45.00,60.00,Tuesday
7,-1.7
8,0.0
9,0.0
10,0.0
11,0.0
12,0.0
13,0.0
14,5.9448305875158999
15,-3.2073877490280817
16,4.065513717054955
17,-2.1270860231936696
18,6.274495824268276
2,1, 1, 1, 0,24, 0.00,15.00,Tuesday
7,-1.7
8,0.0
9,0.0
10,0.0
11,0.0
12,0.0
13,0.0
14,5.9061970827788639
15,-3.26145482062136
16,4.015772625075272
17,-2.190355572046201
18,6.229331577494045
2,1, 1, 1, 0,24,15.00,30.00,Tuesday
7,-1.7
8,0.0
9,0.0
10,0.0
11,0.0
12,0.0
13,0.0
14,5.865436993386026
15,-3.3161358341345785
16,3.9700407743469556
17,-2.251822038609191
18,6.1866810815062529
2,1, 1, 1, 0,24,30.00,45.00,Tuesday
7,-1.7
8,0.0
9,0.0
10,0.0
11,0.0
12,0.0
13,0.0
14,5.825737635266894
15,-3.370709033832279
16,3.9241413454651594
17,-2.3132763360365518
18,6.146530244766211
2,1, 1, 1, 0,24,45.00,60.00,Tuesday
7,-1.7
8,0.0
9,0.0
10,0.0
11,0.0
12,0.0
13,0.0
14,5.78684048867413
15,-3.425284758552439
16,3.8791413740260625
17,-2.3744324065445427
18,6.10786625702731
End of Data
 Number of Records Written=        1152
